
Host: Magnesium

Timers On : Tue Feb 20 12:22:54 2018
Timers Off: Tue Feb 20 12:22:54 2018

Wall Time:        0.48 seconds


-----------------------------------------------------------

***********************************************************

Host: Magnesium

Timers On : Tue Feb 20 12:26:16 2018
Timers Off: Tue Feb 20 12:26:16 2018

Wall Time:        0.56 seconds


-----------------------------------------------------------

***********************************************************

Host: Magnesium

Timers On : Tue Feb 20 12:28:05 2018
Timers Off: Tue Feb 20 12:28:06 2018

Wall Time:        0.58 seconds


-----------------------------------------------------------

***********************************************************

Host: Magnesium

Timers On : Tue Feb 20 12:32:19 2018
Timers Off: Tue Feb 20 12:32:20 2018

Wall Time:        0.47 seconds


-----------------------------------------------------------

***********************************************************

Host: Magnesium

Timers On : Tue Feb 20 12:33:11 2018
Timers Off: Tue Feb 20 12:33:12 2018

Wall Time:        0.49 seconds


-----------------------------------------------------------

***********************************************************

Host: Magnesium

Timers On : Tue Feb 20 12:33:41 2018
Timers Off: Tue Feb 20 12:33:41 2018

Wall Time:        0.42 seconds


-----------------------------------------------------------

***********************************************************

Host: Magnesium

Timers On : Tue Feb 20 12:34:36 2018
Timers Off: Tue Feb 20 12:34:36 2018

Wall Time:        0.52 seconds


-----------------------------------------------------------

***********************************************************
