
    -----------------------------------------------------------------------
          Psi4: An Open-Source Ab Initio Electronic Structure Package
                               Psi4 1.1 release

                         Git: Rev {HEAD} add49b9 


    R. M. Parrish, L. A. Burns, D. G. A. Smith, A. C. Simmonett,
    A. E. DePrince III, E. G. Hohenstein, U. Bozkaya, A. Yu. Sokolov,
    R. Di Remigio, R. M. Richard, J. F. Gonthier, A. M. James,
    H. R. McAlexander, A. Kumar, M. Saitow, X. Wang, B. P. Pritchard,
    P. Verma, H. F. Schaefer III, K. Patkowski, R. A. King, E. F. Valeev,
    F. A. Evangelista, J. M. Turney, T. D. Crawford, and C. D. Sherrill,
    J. Chem. Theory Comput. in press (2017).
    (doi: 10.1021/acs.jctc.7b00174)

    -----------------------------------------------------------------------


    Psi4 started on: Tuesday, 20 March 2018 10:41PM

    Process ID:    947
    PSIDATADIR: /home/carlosborca/psi4conda/share/psi4
    Memory:     500.0 MiB
    Threads:    1
    
  ==> Input File <==

--------------------------------------------------------------------------
# PSI4 file produced by CrystaLattE

# Psithon input for N-mer:     3mer-0+1+2
# Number of replicas:          1
# Priority index for input:    5.63510092e-07
# Minimum monomer separations: 2.544  2.632  2.680 
# Minimum COM separations:     5.025  5.812  5.986 

memory 500 MB

molecule Trimer_0_1_2 {
  H            2.76229206      -5.11251043       3.12588859 
  H           -1.06693182     -11.09728066      -2.94829591 
  H           -2.58493559      -6.71462025      -2.79515439 
  H            4.28029583      -9.49517084       2.97274708 
  H           -0.61306684      -3.65103026       0.24708547 
  H            2.30842708     -12.55876083      -0.06949279 
  C            1.92299098      -6.39953865       1.79394347 
  C           -0.22763074      -9.81025244      -1.61635079 
  C           -1.07531086      -7.30918100      -1.53270206 
  C            2.77067110      -8.90061009       1.71029475 
  C            0.00000000      -5.62518557       0.17759268 
  C            1.69536024     -10.58460551      -0.00000000 
--
  H           -8.04946988       3.78809965       3.12588859 
  H           -4.22024600      -2.19667057      -2.94829591 
  H           -2.70224223       2.18598984      -2.79515439 
  H           -9.56747365      -0.59456075       2.97274708 
  H           -4.67411098       5.24957983       0.24708547 
  H           -7.59560490      -3.65815075      -0.06949279 
  C           -7.21016880       2.50107143       1.79394347 
  C           -5.05954708      -0.90964235      -1.61635079 
  C           -4.21186696       1.59142908      -1.53270206 
  C           -8.05784892       0.00000000       1.71029475 
  C           -5.28717782       3.27542451       0.17759268 
  C           -6.98253806      -1.68399543      -0.00000000 
--
  H            2.76229206      -2.19667057       9.56040608 
  H           -1.06693182       3.78809965       3.48622157 
  H           -2.58493559      -0.59456075       3.63936309 
  H            4.28029583       2.18598984       9.40726456 
  H           -0.61306684      -3.65815075       6.68160295 
  H            2.30842708       5.24957983       6.36502469 
  C            1.92299098      -0.90964235       8.22846096 
  C           -0.22763074       2.50107143       4.81816669 
  C           -1.07531086       0.00000000       4.90181542 
  C            2.77067110       1.59142908       8.14481223 
  C            0.00000000      -1.68399543       6.61211016 
  C            1.69536024       3.27542451       6.43451748 
units = au
no_com
no_reorient
}

set {
  e_convergence 8
  scf_type df
  mp2_type df
  cc_type df
  freeze_core true
}

energy('scf/STO-3G', bsse_type = 'cp')

--------------------------------------------------------------------------

  Memory set to 476.837 MiB by Python driver.


   ===> N-Body Interaction Abacus <===
        BSSE Treatment:                     cp
        Number of 1-body computations:     3
        Number of 2-body computations:     3
        Number of 3-body computations:     1

   ==> N-Body: Now computing 1-body complexes <==


       N-Body: Computing complex (1/3) with fragments (3,) in the basis of fragments (1, 2, 3).


*** tstart() called on Magnesium
*** at Tue Mar 20 22:41:30 2018

   => Loading Basis Set <=

    Name: STO-3G
    Role: ORBITAL
    Keyword: BASIS
    atoms 1-6, 13-18, 25-30  entry H          line    18 file /home/carlosborca/psi4conda/share/psi4/basis/sto-3g.gbs 
    atoms 7-12, 19-24, 31-36 entry C          line    60 file /home/carlosborca/psi4conda/share/psi4/basis/sto-3g.gbs 

    There are an even number of electrons - assuming singlet.
    Specify the multiplicity in the molecule input block.


         ---------------------------------------------------------
                                   SCF
            by Justin Turney, Rob Parrish, and Andy Simmonett
                              RHF Reference
                        1 Threads,    476 MiB Core
         ---------------------------------------------------------

  ==> Geometry <==

    Molecular point group: c1
    Full point group: C1

    Geometry (in Bohr), charge = 0, multiplicity = 1:

       Center              X                  Y                   Z               Mass       
    ------------   -----------------  -----------------  -----------------  -----------------
           H(Gh)      2.762292060000    -5.112510430000     3.125888590000     1.007825032070
           H(Gh)     -1.066931820000   -11.097280660000    -2.948295910000     1.007825032070
           H(Gh)     -2.584935590000    -6.714620250000    -2.795154390000     1.007825032070
           H(Gh)      4.280295830000    -9.495170840000     2.972747080000     1.007825032070
           H(Gh)     -0.613066840000    -3.651030260000     0.247085470000     1.007825032070
           H(Gh)      2.308427080000   -12.558760830000    -0.069492790000     1.007825032070
           C(Gh)      1.922990980000    -6.399538650000     1.793943470000    12.000000000000
           C(Gh)     -0.227630740000    -9.810252440000    -1.616350790000    12.000000000000
           C(Gh)     -1.075310860000    -7.309181000000    -1.532702060000    12.000000000000
           C(Gh)      2.770671100000    -8.900610090000     1.710294750000    12.000000000000
           C(Gh)      0.000000000000    -5.625185570000     0.177592680000    12.000000000000
           C(Gh)      1.695360240000   -10.584605510000     0.000000000000    12.000000000000
           H(Gh)     -8.049469880000     3.788099650000     3.125888590000     1.007825032070
           H(Gh)     -4.220246000000    -2.196670570000    -2.948295910000     1.007825032070
           H(Gh)     -2.702242230000     2.185989840000    -2.795154390000     1.007825032070
           H(Gh)     -9.567473650000    -0.594560750000     2.972747080000     1.007825032070
           H(Gh)     -4.674110980000     5.249579830000     0.247085470000     1.007825032070
           H(Gh)     -7.595604900000    -3.658150750000    -0.069492790000     1.007825032070
           C(Gh)     -7.210168800000     2.501071430000     1.793943470000    12.000000000000
           C(Gh)     -5.059547080000    -0.909642350000    -1.616350790000    12.000000000000
           C(Gh)     -4.211866960000     1.591429080000    -1.532702060000    12.000000000000
           C(Gh)     -8.057848920000     0.000000000000     1.710294750000    12.000000000000
           C(Gh)     -5.287177820000     3.275424510000     0.177592680000    12.000000000000
           C(Gh)     -6.982538060000    -1.683995430000     0.000000000000    12.000000000000
           H          2.762292060000    -2.196670570000     9.560406080000     1.007825032070
           H         -1.066931820000     3.788099650000     3.486221570000     1.007825032070
           H         -2.584935590000    -0.594560750000     3.639363090000     1.007825032070
           H          4.280295830000     2.185989840000     9.407264560000     1.007825032070
           H         -0.613066840000    -3.658150750000     6.681602950000     1.007825032070
           H          2.308427080000     5.249579830000     6.365024690000     1.007825032070
           C          1.922990980000    -0.909642350000     8.228460960000    12.000000000000
           C         -0.227630740000     2.501071430000     4.818166690000    12.000000000000
           C         -1.075310860000     0.000000000000     4.901815420000    12.000000000000
           C          2.770671100000     1.591429080000     8.144812230000    12.000000000000
           C          0.000000000000    -1.683995430000     6.612110160000    12.000000000000
           C          1.695360240000     3.275424510000     6.434517480000    12.000000000000

  Running in c1 symmetry.

  Rotational constants: A =      0.00845  B =      0.00651  C =      0.00567 [cm^-1]
  Rotational constants: A =    253.29319  B =    195.02684  C =    170.10767 [MHz]
  Nuclear repulsion =  203.582005637321913

  Charge       = 0
  Multiplicity = 1
  Electrons    = 42
  Nalpha       = 21
  Nbeta        = 21

  ==> Algorithm <==

  SCF Algorithm Type is DF.
  DIIS enabled.
  MOM disabled.
  Fractional occupation disabled.
  Guess Type is SAD.
  Energy threshold   = 1.00e-08
  Density threshold  = 1.00e-06
  Integral threshold = 0.00e+00

  ==> Primary Basis <==

  Basis Set: STO-3G
    Blend: STO-3G
    Number of shells: 72
    Number of basis function: 108
    Number of Cartesian functions: 108
    Spherical Harmonics?: true
    Max angular momentum: 1

   => Loading Basis Set <=

    Name: (STO-3G AUX)
    Role: JKFIT
    Keyword: DF_BASIS_SCF
    atoms 1-6, 13-18, 25-30  entry H          line    22 file /home/carlosborca/psi4conda/share/psi4/basis/def2-svp-jkfit.gbs 
    atoms 7-12, 19-24, 31-36 entry C          line   202 file /home/carlosborca/psi4conda/share/psi4/basis/def2-svp-jkfit.gbs 

  ==> Pre-Iterations <==

   -------------------------------------------------------
    Irrep   Nso     Nmo     Nalpha   Nbeta   Ndocc  Nsocc
   -------------------------------------------------------
     A        108     108       0       0       0       0
   -------------------------------------------------------
    Total     108     108      21      21      21       0
   -------------------------------------------------------

  ==> Integral Setup <==

  ==> DFJK: Density-Fitted J/K Matrices <==

    J tasked:                  Yes
    K tasked:                  Yes
    wK tasked:                  No
    OpenMP threads:              1
    Integrals threads:           1
    Memory (MB):               357
    Algorithm:                Core
    Integral Cache:           NONE
    Schwarz Cutoff:          1E-12
    Fitting Condition:       1E-12

   => Auxiliary Basis Set <=

  Basis Set: (STO-3G AUX)
    Blend: DEF2-SVP-JKFIT
    Number of shells: 558
    Number of basis function: 1674
    Number of Cartesian functions: 1962
    Spherical Harmonics?: true
    Max angular momentum: 4

  Minimum eigenvalue in the overlap matrix is 1.7071922217E-01.
  Using Symmetric Orthogonalization.

  SCF Guess: Superposition of Atomic Densities via on-the-fly atomic UHF.

  ==> Iterations <==

                           Total Energy        Delta E     RMS |[F,P]|

   @DF-RHF iter   0:  -229.70379770641230   -2.29704e+02   3.50696e-02 
   @DF-RHF iter   1:  -227.85085671661054    1.85294e+00   1.72004e-03 
   @DF-RHF iter   2:  -227.88568722591020   -3.48305e-02   5.50915e-04 DIIS
   @DF-RHF iter   3:  -227.89087941192730   -5.19219e-03   1.42940e-04 DIIS
   @DF-RHF iter   4:  -227.89130393769668   -4.24526e-04   4.49954e-05 DIIS
   @DF-RHF iter   5:  -227.89134255629142   -3.86186e-05   1.13798e-05 DIIS
   @DF-RHF iter   6:  -227.89134442316123   -1.86687e-06   1.61790e-06 DIIS
   @DF-RHF iter   7:  -227.89134446977525   -4.66140e-08   2.23583e-07 DIIS
   @DF-RHF iter   8:  -227.89134447055059   -7.75344e-10   6.44078e-08 DIIS

  ==> Post-Iterations <==

    Orbital Energies (a.u.)
    -----------------------

    Doubly Occupied:                                                      

       1A    -11.030008     2A    -11.029849     3A    -11.029735  
       4A    -11.029559     5A    -11.028962     6A    -11.028941  
       7A     -1.091041     8A     -0.956295     9A     -0.954287  
      10A     -0.767973    11A     -0.766246    12A     -0.662167  
      13A     -0.594017    14A     -0.554660    15A     -0.535452  
      16A     -0.531991    17A     -0.457075    18A     -0.437780  
      19A     -0.428041    20A     -0.281550    21A     -0.279499  

    Virtual:                                                              

      22A      0.253291    23A      0.257494    24A      0.266627  
      25A      0.270799    26A      0.378922    27A      0.382806  
      28A      0.385109    29A      0.388628    30A      0.503804  
      31A      0.572986    32A      0.583562    33A      0.584951  
      34A      0.590118    35A      0.593849    36A      0.638487  
      37A      0.655592    38A      0.716605    39A      0.726492  
      40A      0.730698    41A      0.734660    42A      0.741646  
      43A      0.777433    44A      0.797042    45A      0.881608  
      46A      0.885478    47A      0.894258    48A      0.899927  
      49A      0.938139    50A      0.952409    51A      0.957803  
      52A      0.973403    53A      1.084087    54A      1.088839  
      55A      1.092236    56A      1.148925    57A      1.150057  
      58A      1.156240    59A      1.161721    60A      1.166831  
      61A      1.307620    62A      1.310003    63A      1.322359  
      64A      1.323212    65A      1.324171    66A      1.325005  
      67A      1.506143    68A      1.516115    69A      1.769805  
      70A      1.787777    71A      1.821460    72A      1.822407  
      73A      1.827031    74A      1.827733    75A      1.935607  
      76A      1.939302    77A      1.949781    78A      1.961803  
      79A      2.103006    80A      2.108173    81A      2.120538  
      82A      2.134329    83A      2.167355    84A      2.168176  
      85A      2.779134    86A      2.783543    87A      2.787686  
      88A      2.790522    89A      2.806428    90A      2.809676  
      91A      2.824534    92A      2.827002    93A      3.236809  
      94A      3.242229    95A      3.366036    96A      3.368204  
      97A     17.076190    98A     17.078158    99A     17.329931  
     100A     17.330231   101A     17.332388   102A     17.334343  
     103A     17.793769   104A     17.794573   105A     17.798851  
     106A     17.800100   107A     18.061827   108A     18.065217  

    Final Occupation by Irrep:
              A 
    DOCC [    21 ]

  Energy converged.

  @DF-RHF Final Energy:  -227.89134447055059

   => Energetics <=

    Nuclear Repulsion Energy =            203.5820056373219131
    One-Electron Energy =                -711.9964508748031449
    Two-Electron Energy =                 280.5231007669306109
    DFT Exchange-Correlation Energy =       0.0000000000000000
    Empirical Dispersion Energy =           0.0000000000000000
    PCM Polarization Energy =               0.0000000000000000
    EFP Energy =                            0.0000000000000000
    Total Energy =                       -227.8913444705506208



Properties will be evaluated at   0.000000,   0.000000,   0.000000 Bohr

Properties computed using the SCF density matrix

  Nuclear Dipole Moment: (a.u.)
     X:    35.6026      Y:    33.4200      Z:   273.9792

  Electronic Dipole Moment: (a.u.)
     X:   -35.5996      Y:   -33.4147      Z:  -273.9700

  Dipole Moment: (a.u.)
     X:     0.0029      Y:     0.0053      Z:     0.0092     Total:     0.0110

  Dipole Moment: (Debye)
     X:     0.0074      Y:     0.0134      Z:     0.0235     Total:     0.0280


*** tstop() called on Magnesium at Tue Mar 20 22:41:47 2018
Module time:
	user time   =      16.82 seconds =       0.28 minutes
	system time =       0.44 seconds =       0.01 minutes
	total time  =         17 seconds =       0.28 minutes
Total time:
	user time   =      16.82 seconds =       0.28 minutes
	system time =       0.44 seconds =       0.01 minutes
	total time  =         17 seconds =       0.28 minutes

       N-Body: Complex Energy (fragments = (3,), basis = (1, 2, 3):  -227.89134447055059)

       N-Body: Computing complex (2/3) with fragments (1,) in the basis of fragments (1, 2, 3).


*** tstart() called on Magnesium
*** at Tue Mar 20 22:41:47 2018

   => Loading Basis Set <=

    Name: STO-3G
    Role: ORBITAL
    Keyword: BASIS
    atoms 1-6, 13-18, 25-30  entry H          line    18 file /home/carlosborca/psi4conda/share/psi4/basis/sto-3g.gbs 
    atoms 7-12, 19-24, 31-36 entry C          line    60 file /home/carlosborca/psi4conda/share/psi4/basis/sto-3g.gbs 

    There are an even number of electrons - assuming singlet.
    Specify the multiplicity in the molecule input block.


         ---------------------------------------------------------
                                   SCF
            by Justin Turney, Rob Parrish, and Andy Simmonett
                              RHF Reference
                        1 Threads,    476 MiB Core
         ---------------------------------------------------------

  ==> Geometry <==

    Molecular point group: c1
    Full point group: C1

    Geometry (in Bohr), charge = 0, multiplicity = 1:

       Center              X                  Y                   Z               Mass       
    ------------   -----------------  -----------------  -----------------  -----------------
           H          2.762292060000    -5.112510430000     3.125888590000     1.007825032070
           H         -1.066931820000   -11.097280660000    -2.948295910000     1.007825032070
           H         -2.584935590000    -6.714620250000    -2.795154390000     1.007825032070
           H          4.280295830000    -9.495170840000     2.972747080000     1.007825032070
           H         -0.613066840000    -3.651030260000     0.247085470000     1.007825032070
           H          2.308427080000   -12.558760830000    -0.069492790000     1.007825032070
           C          1.922990980000    -6.399538650000     1.793943470000    12.000000000000
           C         -0.227630740000    -9.810252440000    -1.616350790000    12.000000000000
           C         -1.075310860000    -7.309181000000    -1.532702060000    12.000000000000
           C          2.770671100000    -8.900610090000     1.710294750000    12.000000000000
           C          0.000000000000    -5.625185570000     0.177592680000    12.000000000000
           C          1.695360240000   -10.584605510000     0.000000000000    12.000000000000
           H(Gh)     -8.049469880000     3.788099650000     3.125888590000     1.007825032070
           H(Gh)     -4.220246000000    -2.196670570000    -2.948295910000     1.007825032070
           H(Gh)     -2.702242230000     2.185989840000    -2.795154390000     1.007825032070
           H(Gh)     -9.567473650000    -0.594560750000     2.972747080000     1.007825032070
           H(Gh)     -4.674110980000     5.249579830000     0.247085470000     1.007825032070
           H(Gh)     -7.595604900000    -3.658150750000    -0.069492790000     1.007825032070
           C(Gh)     -7.210168800000     2.501071430000     1.793943470000    12.000000000000
           C(Gh)     -5.059547080000    -0.909642350000    -1.616350790000    12.000000000000
           C(Gh)     -4.211866960000     1.591429080000    -1.532702060000    12.000000000000
           C(Gh)     -8.057848920000     0.000000000000     1.710294750000    12.000000000000
           C(Gh)     -5.287177820000     3.275424510000     0.177592680000    12.000000000000
           C(Gh)     -6.982538060000    -1.683995430000     0.000000000000    12.000000000000
           H(Gh)      2.762292060000    -2.196670570000     9.560406080000     1.007825032070
           H(Gh)     -1.066931820000     3.788099650000     3.486221570000     1.007825032070
           H(Gh)     -2.584935590000    -0.594560750000     3.639363090000     1.007825032070
           H(Gh)      4.280295830000     2.185989840000     9.407264560000     1.007825032070
           H(Gh)     -0.613066840000    -3.658150750000     6.681602950000     1.007825032070
           H(Gh)      2.308427080000     5.249579830000     6.365024690000     1.007825032070
           C(Gh)      1.922990980000    -0.909642350000     8.228460960000    12.000000000000
           C(Gh)     -0.227630740000     2.501071430000     4.818166690000    12.000000000000
           C(Gh)     -1.075310860000     0.000000000000     4.901815420000    12.000000000000
           C(Gh)      2.770671100000     1.591429080000     8.144812230000    12.000000000000
           C(Gh)      0.000000000000    -1.683995430000     6.612110160000    12.000000000000
           C(Gh)      1.695360240000     3.275424510000     6.434517480000    12.000000000000

  Running in c1 symmetry.

  Rotational constants: A =      0.00845  B =      0.00651  C =      0.00567 [cm^-1]
  Rotational constants: A =    253.29319  B =    195.02684  C =    170.10767 [MHz]
  Nuclear repulsion =  203.582005635571335

  Charge       = 0
  Multiplicity = 1
  Electrons    = 42
  Nalpha       = 21
  Nbeta        = 21

  ==> Algorithm <==

  SCF Algorithm Type is DF.
  DIIS enabled.
  MOM disabled.
  Fractional occupation disabled.
  Guess Type is SAD.
  Energy threshold   = 1.00e-08
  Density threshold  = 1.00e-06
  Integral threshold = 0.00e+00

  ==> Primary Basis <==

  Basis Set: STO-3G
    Blend: STO-3G
    Number of shells: 72
    Number of basis function: 108
    Number of Cartesian functions: 108
    Spherical Harmonics?: true
    Max angular momentum: 1

   => Loading Basis Set <=

    Name: (STO-3G AUX)
    Role: JKFIT
    Keyword: DF_BASIS_SCF
    atoms 1-6, 13-18, 25-30  entry H          line    22 file /home/carlosborca/psi4conda/share/psi4/basis/def2-svp-jkfit.gbs 
    atoms 7-12, 19-24, 31-36 entry C          line   202 file /home/carlosborca/psi4conda/share/psi4/basis/def2-svp-jkfit.gbs 

  ==> Pre-Iterations <==

   -------------------------------------------------------
    Irrep   Nso     Nmo     Nalpha   Nbeta   Ndocc  Nsocc
   -------------------------------------------------------
     A        108     108       0       0       0       0
   -------------------------------------------------------
    Total     108     108      21      21      21       0
   -------------------------------------------------------

  ==> Integral Setup <==

  ==> DFJK: Density-Fitted J/K Matrices <==

    J tasked:                  Yes
    K tasked:                  Yes
    wK tasked:                  No
    OpenMP threads:              1
    Integrals threads:           1
    Memory (MB):               357
    Algorithm:                Core
    Integral Cache:           NONE
    Schwarz Cutoff:          1E-12
    Fitting Condition:       1E-12

   => Auxiliary Basis Set <=

  Basis Set: (STO-3G AUX)
    Blend: DEF2-SVP-JKFIT
    Number of shells: 558
    Number of basis function: 1674
    Number of Cartesian functions: 1962
    Spherical Harmonics?: true
    Max angular momentum: 4

  Minimum eigenvalue in the overlap matrix is 1.7071922217E-01.
  Using Symmetric Orthogonalization.

  SCF Guess: Superposition of Atomic Densities via on-the-fly atomic UHF.

  ==> Iterations <==

                           Total Energy        Delta E     RMS |[F,P]|

   @DF-RHF iter   0:  -229.66964825917410   -2.29670e+02   3.50383e-02 
   @DF-RHF iter   1:  -227.84571034598557    1.82394e+00   1.79171e-03 
   @DF-RHF iter   2:  -227.88444602312552   -3.87357e-02   5.92419e-04 DIIS
   @DF-RHF iter   3:  -227.89056282737801   -6.11680e-03   1.51457e-04 DIIS
   @DF-RHF iter   4:  -227.89103231470045   -4.69487e-04   4.82794e-05 DIIS
   @DF-RHF iter   5:  -227.89107519661508   -4.28819e-05   1.19867e-05 DIIS
   @DF-RHF iter   6:  -227.89107733060376   -2.13399e-06   1.66524e-06 DIIS
   @DF-RHF iter   7:  -227.89107737975661   -4.91528e-08   2.20028e-07 DIIS
   @DF-RHF iter   8:  -227.89107738051973   -7.63123e-10   6.13090e-08 DIIS

  ==> Post-Iterations <==

    Orbital Energies (a.u.)
    -----------------------

    Doubly Occupied:                                                      

       1A    -11.029828     2A    -11.029688     3A    -11.029529  
       4A    -11.029411     5A    -11.028820     6A    -11.028772  
       7A     -1.090909     8A     -0.956172     9A     -0.954160  
      10A     -0.767853    11A     -0.766132    12A     -0.662051  
      13A     -0.593917    14A     -0.554527    15A     -0.535331  
      16A     -0.531873    17A     -0.456956    18A     -0.437667  
      19A     -0.427912    20A     -0.281406    21A     -0.279373  

    Virtual:                                                              

      22A      0.252005    23A      0.258227    24A      0.266770  
      25A      0.270995    26A      0.379891    27A      0.382714  
      28A      0.383891    29A      0.387140    30A      0.504080  
      31A      0.569180    32A      0.583507    33A      0.585056  
      34A      0.592008    35A      0.592335    36A      0.639686  
      37A      0.655588    38A      0.716461    39A      0.726417  
      40A      0.729401    41A      0.734219    42A      0.744114  
      43A      0.786366    44A      0.788267    45A      0.881774  
      46A      0.885397    47A      0.893531    48A      0.900785  
      49A      0.945559    50A      0.951840    51A      0.956735  
      52A      0.961677    53A      1.083548    54A      1.086908  
      55A      1.089277    56A      1.149928    57A      1.152784  
      58A      1.158235    59A      1.161685    60A      1.165050  
      61A      1.307285    62A      1.308534    63A      1.320875  
      64A      1.323375    65A      1.325329    66A      1.326331  
      67A      1.509697    68A      1.513387    69A      1.772855  
      70A      1.785261    71A      1.820851    72A      1.820980  
      73A      1.827408    74A      1.829110    75A      1.936874  
      76A      1.937834    77A      1.954424    78A      1.956069  
      79A      2.106665    80A      2.109843    81A      2.121702  
      82A      2.125014    83A      2.166721    84A      2.168827  
      85A      2.782320    86A      2.783797    87A      2.786073  
      88A      2.788579    89A      2.806792    90A      2.807164  
      91A      2.825551    92A      2.825615    93A      3.238221  
      94A      3.240254    95A      3.366717    96A      3.366808  
      97A     17.072356    98A     17.081299    99A     17.329694  
     100A     17.331014   101A     17.331709   102A     17.333464  
     103A     17.794439   104A     17.794918   105A     17.797318  
     106A     17.799484   107A     18.062571   108A     18.063879  

    Final Occupation by Irrep:
              A 
    DOCC [    21 ]

  Energy converged.

  @DF-RHF Final Energy:  -227.89107738051973

   => Energetics <=

    Nuclear Repulsion Energy =            203.5820056355713348
    One-Electron Energy =                -712.0015981064527750
    Two-Electron Energy =                 280.5285150903616795
    DFT Exchange-Correlation Energy =       0.0000000000000000
    Empirical Dispersion Energy =           0.0000000000000000
    PCM Polarization Energy =               0.0000000000000000
    EFP Energy =                            0.0000000000000000
    Total Energy =                       -227.8910773805197323



Properties will be evaluated at   0.000000,   0.000000,   0.000000 Bohr

Properties computed using the SCF density matrix

  Nuclear Dipole Moment: (a.u.)
     X:    35.6026      Y:  -340.4056      Z:     3.7294

  Electronic Dipole Moment: (a.u.)
     X:   -35.5991      Y:   340.3995      Z:    -3.7317

  Dipole Moment: (a.u.)
     X:     0.0035      Y:    -0.0061      Z:    -0.0023     Total:     0.0073

  Dipole Moment: (Debye)
     X:     0.0088      Y:    -0.0154      Z:    -0.0058     Total:     0.0187


*** tstop() called on Magnesium at Tue Mar 20 22:42:04 2018
Module time:
	user time   =      16.70 seconds =       0.28 minutes
	system time =       0.31 seconds =       0.01 minutes
	total time  =         17 seconds =       0.28 minutes
Total time:
	user time   =      33.53 seconds =       0.56 minutes
	system time =       0.75 seconds =       0.01 minutes
	total time  =         34 seconds =       0.57 minutes

       N-Body: Complex Energy (fragments = (1,), basis = (1, 2, 3):  -227.89107738051973)

       N-Body: Computing complex (3/3) with fragments (2,) in the basis of fragments (1, 2, 3).


*** tstart() called on Magnesium
*** at Tue Mar 20 22:42:05 2018

   => Loading Basis Set <=

    Name: STO-3G
    Role: ORBITAL
    Keyword: BASIS
    atoms 1-6, 13-18, 25-30  entry H          line    18 file /home/carlosborca/psi4conda/share/psi4/basis/sto-3g.gbs 
    atoms 7-12, 19-24, 31-36 entry C          line    60 file /home/carlosborca/psi4conda/share/psi4/basis/sto-3g.gbs 

    There are an even number of electrons - assuming singlet.
    Specify the multiplicity in the molecule input block.


         ---------------------------------------------------------
                                   SCF
            by Justin Turney, Rob Parrish, and Andy Simmonett
                              RHF Reference
                        1 Threads,    476 MiB Core
         ---------------------------------------------------------

  ==> Geometry <==

    Molecular point group: c1
    Full point group: C1

    Geometry (in Bohr), charge = 0, multiplicity = 1:

       Center              X                  Y                   Z               Mass       
    ------------   -----------------  -----------------  -----------------  -----------------
           H(Gh)      2.762292060000    -5.112510430000     3.125888590000     1.007825032070
           H(Gh)     -1.066931820000   -11.097280660000    -2.948295910000     1.007825032070
           H(Gh)     -2.584935590000    -6.714620250000    -2.795154390000     1.007825032070
           H(Gh)      4.280295830000    -9.495170840000     2.972747080000     1.007825032070
           H(Gh)     -0.613066840000    -3.651030260000     0.247085470000     1.007825032070
           H(Gh)      2.308427080000   -12.558760830000    -0.069492790000     1.007825032070
           C(Gh)      1.922990980000    -6.399538650000     1.793943470000    12.000000000000
           C(Gh)     -0.227630740000    -9.810252440000    -1.616350790000    12.000000000000
           C(Gh)     -1.075310860000    -7.309181000000    -1.532702060000    12.000000000000
           C(Gh)      2.770671100000    -8.900610090000     1.710294750000    12.000000000000
           C(Gh)      0.000000000000    -5.625185570000     0.177592680000    12.000000000000
           C(Gh)      1.695360240000   -10.584605510000     0.000000000000    12.000000000000
           H         -8.049469880000     3.788099650000     3.125888590000     1.007825032070
           H         -4.220246000000    -2.196670570000    -2.948295910000     1.007825032070
           H         -2.702242230000     2.185989840000    -2.795154390000     1.007825032070
           H         -9.567473650000    -0.594560750000     2.972747080000     1.007825032070
           H         -4.674110980000     5.249579830000     0.247085470000     1.007825032070
           H         -7.595604900000    -3.658150750000    -0.069492790000     1.007825032070
           C         -7.210168800000     2.501071430000     1.793943470000    12.000000000000
           C         -5.059547080000    -0.909642350000    -1.616350790000    12.000000000000
           C         -4.211866960000     1.591429080000    -1.532702060000    12.000000000000
           C         -8.057848920000     0.000000000000     1.710294750000    12.000000000000
           C         -5.287177820000     3.275424510000     0.177592680000    12.000000000000
           C         -6.982538060000    -1.683995430000     0.000000000000    12.000000000000
           H(Gh)      2.762292060000    -2.196670570000     9.560406080000     1.007825032070
           H(Gh)     -1.066931820000     3.788099650000     3.486221570000     1.007825032070
           H(Gh)     -2.584935590000    -0.594560750000     3.639363090000     1.007825032070
           H(Gh)      4.280295830000     2.185989840000     9.407264560000     1.007825032070
           H(Gh)     -0.613066840000    -3.658150750000     6.681602950000     1.007825032070
           H(Gh)      2.308427080000     5.249579830000     6.365024690000     1.007825032070
           C(Gh)      1.922990980000    -0.909642350000     8.228460960000    12.000000000000
           C(Gh)     -0.227630740000     2.501071430000     4.818166690000    12.000000000000
           C(Gh)     -1.075310860000     0.000000000000     4.901815420000    12.000000000000
           C(Gh)      2.770671100000     1.591429080000     8.144812230000    12.000000000000
           C(Gh)      0.000000000000    -1.683995430000     6.612110160000    12.000000000000
           C(Gh)      1.695360240000     3.275424510000     6.434517480000    12.000000000000

  Running in c1 symmetry.

  Rotational constants: A =      0.00845  B =      0.00651  C =      0.00567 [cm^-1]
  Rotational constants: A =    253.29319  B =    195.02684  C =    170.10767 [MHz]
  Nuclear repulsion =  203.582005708156913

  Charge       = 0
  Multiplicity = 1
  Electrons    = 42
  Nalpha       = 21
  Nbeta        = 21

  ==> Algorithm <==

  SCF Algorithm Type is DF.
  DIIS enabled.
  MOM disabled.
  Fractional occupation disabled.
  Guess Type is SAD.
  Energy threshold   = 1.00e-08
  Density threshold  = 1.00e-06
  Integral threshold = 0.00e+00

  ==> Primary Basis <==

  Basis Set: STO-3G
    Blend: STO-3G
    Number of shells: 72
    Number of basis function: 108
    Number of Cartesian functions: 108
    Spherical Harmonics?: true
    Max angular momentum: 1

   => Loading Basis Set <=

    Name: (STO-3G AUX)
    Role: JKFIT
    Keyword: DF_BASIS_SCF
    atoms 1-6, 13-18, 25-30  entry H          line    22 file /home/carlosborca/psi4conda/share/psi4/basis/def2-svp-jkfit.gbs 
    atoms 7-12, 19-24, 31-36 entry C          line   202 file /home/carlosborca/psi4conda/share/psi4/basis/def2-svp-jkfit.gbs 

  ==> Pre-Iterations <==

   -------------------------------------------------------
    Irrep   Nso     Nmo     Nalpha   Nbeta   Ndocc  Nsocc
   -------------------------------------------------------
     A        108     108       0       0       0       0
   -------------------------------------------------------
    Total     108     108      21      21      21       0
   -------------------------------------------------------

  ==> Integral Setup <==

  ==> DFJK: Density-Fitted J/K Matrices <==

    J tasked:                  Yes
    K tasked:                  Yes
    wK tasked:                  No
    OpenMP threads:              1
    Integrals threads:           1
    Memory (MB):               357
    Algorithm:                Core
    Integral Cache:           NONE
    Schwarz Cutoff:          1E-12
    Fitting Condition:       1E-12

   => Auxiliary Basis Set <=

  Basis Set: (STO-3G AUX)
    Blend: DEF2-SVP-JKFIT
    Number of shells: 558
    Number of basis function: 1674
    Number of Cartesian functions: 1962
    Spherical Harmonics?: true
    Max angular momentum: 4

  Minimum eigenvalue in the overlap matrix is 1.7071922217E-01.
  Using Symmetric Orthogonalization.

  SCF Guess: Superposition of Atomic Densities via on-the-fly atomic UHF.

  ==> Iterations <==

                           Total Energy        Delta E     RMS |[F,P]|

   @DF-RHF iter   0:  -227.75553842804456   -2.27756e+02   3.24836e-02 
   @DF-RHF iter   1:  -227.75920057962998   -3.66215e-03   3.55476e-03 
   @DF-RHF iter   2:  -227.88273164810929   -1.23531e-01   9.47960e-04 DIIS
   @DF-RHF iter   3:  -227.89155057182217   -8.81892e-03   2.44578e-04 DIIS
   @DF-RHF iter   4:  -227.89199058036093   -4.40009e-04   2.61602e-05 DIIS
   @DF-RHF iter   5:  -227.89199843042996   -7.85007e-06   7.73745e-06 DIIS
   @DF-RHF iter   6:  -227.89199970765719   -1.27723e-06   2.07911e-06 DIIS
   @DF-RHF iter   7:  -227.89199980720707   -9.95499e-08   2.75639e-07 DIIS
   @DF-RHF iter   8:  -227.89199980818000   -9.72932e-10   8.13688e-08 DIIS

  ==> Post-Iterations <==

    Orbital Energies (a.u.)
    -----------------------

    Doubly Occupied:                                                      

       1A    -11.030284     2A    -11.030184     3A    -11.029988  
       4A    -11.029800     5A    -11.029291     6A    -11.029230  
       7A     -1.091221     8A     -0.956472     9A     -0.954458  
      10A     -0.768145    11A     -0.766421    12A     -0.662342  
      13A     -0.594174    14A     -0.554867    15A     -0.535631  
      16A     -0.532172    17A     -0.457372    18A     -0.437967  
      19A     -0.428220    20A     -0.281680    21A     -0.279594  

    Virtual:                                                              

      22A      0.255872    23A      0.259798    24A      0.266558  
      25A      0.270652    26A      0.381291    27A      0.384374  
      28A      0.387672    29A      0.391239    30A      0.503607  
      31A      0.573302    32A      0.584108    33A      0.587604  
      34A      0.593628    35A      0.595659    36A      0.638442  
      37A      0.655079    38A      0.718373    39A      0.727224  
      40A      0.728780    41A      0.738056    42A      0.743220  
      43A      0.781619    44A      0.797073    45A      0.881833  
      46A      0.884665    47A      0.893801    48A      0.900724  
      49A      0.944358    50A      0.955340    51A      0.962169  
      52A      0.970347    53A      1.083456    54A      1.087196  
      55A      1.088632    56A      1.149333    57A      1.150450  
      58A      1.159354    59A      1.162640    60A      1.170751  
      61A      1.309333    62A      1.312448    63A      1.322667  
      64A      1.323698    65A      1.326296    66A      1.328266  
      67A      1.508626    68A      1.518520    69A      1.776822  
      70A      1.787439    71A      1.821728    72A      1.824918  
      73A      1.827642    74A      1.831409    75A      1.938106  
      76A      1.941078    77A      1.957198    78A      1.959380  
      79A      2.106507    80A      2.115562    81A      2.123591  
      82A      2.129579    83A      2.167378    84A      2.171579  
      85A      2.783194    86A      2.784839    87A      2.789575  
      88A      2.793248    89A      2.808284    90A      2.811054  
      91A      2.826889    92A      2.828930    93A      3.239102  
      94A      3.244488    95A      3.367953    96A      3.370466  
      97A     17.077020    98A     17.080859    99A     17.330997  
     100A     17.332104   101A     17.335608   102A     17.336744  
     103A     17.795873   104A     17.797248   105A     17.800432  
     106A     17.802299   107A     18.064050   108A     18.067252  

    Final Occupation by Irrep:
              A 
    DOCC [    21 ]

  Energy converged.

  @DF-RHF Final Energy:  -227.89199980818000

   => Energetics <=

    Nuclear Repulsion Energy =            203.5820057081569132
    One-Electron Energy =                -711.9889836102437357
    Two-Electron Energy =                 280.5149780939068478
    DFT Exchange-Correlation Energy =       0.0000000000000000
    Empirical Dispersion Energy =           0.0000000000000000
    PCM Polarization Energy =               0.0000000000000000
    EFP Energy =                            0.0000000000000000
    Total Energy =                       -227.8919998081800031



Properties will be evaluated at   0.000000,   0.000000,   0.000000 Bohr

Properties computed using the SCF density matrix

  Nuclear Dipole Moment: (a.u.)
     X:  -257.6640      Y:    33.4200      Z:     3.7294

  Electronic Dipole Moment: (a.u.)
     X:   257.6483      Y:   -33.4157      Z:    -3.7384

  Dipole Moment: (a.u.)
     X:    -0.0157      Y:     0.0043      Z:    -0.0090     Total:     0.0186

  Dipole Moment: (Debye)
     X:    -0.0400      Y:     0.0110      Z:    -0.0228     Total:     0.0474


*** tstop() called on Magnesium at Tue Mar 20 22:42:22 2018
Module time:
	user time   =      16.61 seconds =       0.28 minutes
	system time =       0.30 seconds =       0.01 minutes
	total time  =         17 seconds =       0.28 minutes
Total time:
	user time   =      50.16 seconds =       0.84 minutes
	system time =       1.05 seconds =       0.02 minutes
	total time  =         52 seconds =       0.87 minutes

       N-Body: Complex Energy (fragments = (2,), basis = (1, 2, 3):  -227.89199980818000)

   ==> N-Body: Now computing 2-body complexes <==


       N-Body: Computing complex (1/3) with fragments (1, 3) in the basis of fragments (1, 2, 3).


*** tstart() called on Magnesium
*** at Tue Mar 20 22:42:22 2018

   => Loading Basis Set <=

    Name: STO-3G
    Role: ORBITAL
    Keyword: BASIS
    atoms 1-6, 13-18, 25-30  entry H          line    18 file /home/carlosborca/psi4conda/share/psi4/basis/sto-3g.gbs 
    atoms 7-12, 19-24, 31-36 entry C          line    60 file /home/carlosborca/psi4conda/share/psi4/basis/sto-3g.gbs 

    There are an even number of electrons - assuming singlet.
    Specify the multiplicity in the molecule input block.


         ---------------------------------------------------------
                                   SCF
            by Justin Turney, Rob Parrish, and Andy Simmonett
                              RHF Reference
                        1 Threads,    476 MiB Core
         ---------------------------------------------------------

  ==> Geometry <==

    Molecular point group: c1
    Full point group: C1

    Geometry (in Bohr), charge = 0, multiplicity = 1:

       Center              X                  Y                   Z               Mass       
    ------------   -----------------  -----------------  -----------------  -----------------
           H          2.762292060000    -5.112510430000     3.125888590000     1.007825032070
           H         -1.066931820000   -11.097280660000    -2.948295910000     1.007825032070
           H         -2.584935590000    -6.714620250000    -2.795154390000     1.007825032070
           H          4.280295830000    -9.495170840000     2.972747080000     1.007825032070
           H         -0.613066840000    -3.651030260000     0.247085470000     1.007825032070
           H          2.308427080000   -12.558760830000    -0.069492790000     1.007825032070
           C          1.922990980000    -6.399538650000     1.793943470000    12.000000000000
           C         -0.227630740000    -9.810252440000    -1.616350790000    12.000000000000
           C         -1.075310860000    -7.309181000000    -1.532702060000    12.000000000000
           C          2.770671100000    -8.900610090000     1.710294750000    12.000000000000
           C          0.000000000000    -5.625185570000     0.177592680000    12.000000000000
           C          1.695360240000   -10.584605510000     0.000000000000    12.000000000000
           H(Gh)     -8.049469880000     3.788099650000     3.125888590000     1.007825032070
           H(Gh)     -4.220246000000    -2.196670570000    -2.948295910000     1.007825032070
           H(Gh)     -2.702242230000     2.185989840000    -2.795154390000     1.007825032070
           H(Gh)     -9.567473650000    -0.594560750000     2.972747080000     1.007825032070
           H(Gh)     -4.674110980000     5.249579830000     0.247085470000     1.007825032070
           H(Gh)     -7.595604900000    -3.658150750000    -0.069492790000     1.007825032070
           C(Gh)     -7.210168800000     2.501071430000     1.793943470000    12.000000000000
           C(Gh)     -5.059547080000    -0.909642350000    -1.616350790000    12.000000000000
           C(Gh)     -4.211866960000     1.591429080000    -1.532702060000    12.000000000000
           C(Gh)     -8.057848920000     0.000000000000     1.710294750000    12.000000000000
           C(Gh)     -5.287177820000     3.275424510000     0.177592680000    12.000000000000
           C(Gh)     -6.982538060000    -1.683995430000     0.000000000000    12.000000000000
           H          2.762292060000    -2.196670570000     9.560406080000     1.007825032070
           H         -1.066931820000     3.788099650000     3.486221570000     1.007825032070
           H         -2.584935590000    -0.594560750000     3.639363090000     1.007825032070
           H          4.280295830000     2.185989840000     9.407264560000     1.007825032070
           H         -0.613066840000    -3.658150750000     6.681602950000     1.007825032070
           H          2.308427080000     5.249579830000     6.365024690000     1.007825032070
           C          1.922990980000    -0.909642350000     8.228460960000    12.000000000000
           C         -0.227630740000     2.501071430000     4.818166690000    12.000000000000
           C         -1.075310860000     0.000000000000     4.901815420000    12.000000000000
           C          2.770671100000     1.591429080000     8.144812230000    12.000000000000
           C          0.000000000000    -1.683995430000     6.612110160000    12.000000000000
           C          1.695360240000     3.275424510000     6.434517480000    12.000000000000

  Running in c1 symmetry.

  Rotational constants: A =      0.00845  B =      0.00651  C =      0.00567 [cm^-1]
  Rotational constants: A =    253.29319  B =    195.02684  C =    170.10767 [MHz]
  Nuclear repulsion =  569.632314894321894

  Charge       = 0
  Multiplicity = 1
  Electrons    = 84
  Nalpha       = 42
  Nbeta        = 42

  ==> Algorithm <==

  SCF Algorithm Type is DF.
  DIIS enabled.
  MOM disabled.
  Fractional occupation disabled.
  Guess Type is SAD.
  Energy threshold   = 1.00e-08
  Density threshold  = 1.00e-06
  Integral threshold = 0.00e+00

  ==> Primary Basis <==

  Basis Set: STO-3G
    Blend: STO-3G
    Number of shells: 72
    Number of basis function: 108
    Number of Cartesian functions: 108
    Spherical Harmonics?: true
    Max angular momentum: 1

   => Loading Basis Set <=

    Name: (STO-3G AUX)
    Role: JKFIT
    Keyword: DF_BASIS_SCF
    atoms 1-6, 13-18, 25-30  entry H          line    22 file /home/carlosborca/psi4conda/share/psi4/basis/def2-svp-jkfit.gbs 
    atoms 7-12, 19-24, 31-36 entry C          line   202 file /home/carlosborca/psi4conda/share/psi4/basis/def2-svp-jkfit.gbs 

  ==> Pre-Iterations <==

   -------------------------------------------------------
    Irrep   Nso     Nmo     Nalpha   Nbeta   Ndocc  Nsocc
   -------------------------------------------------------
     A        108     108       0       0       0       0
   -------------------------------------------------------
    Total     108     108      42      42      42       0
   -------------------------------------------------------

  ==> Integral Setup <==

  ==> DFJK: Density-Fitted J/K Matrices <==

    J tasked:                  Yes
    K tasked:                  Yes
    wK tasked:                  No
    OpenMP threads:              1
    Integrals threads:           1
    Memory (MB):               357
    Algorithm:                Core
    Integral Cache:           NONE
    Schwarz Cutoff:          1E-12
    Fitting Condition:       1E-12

   => Auxiliary Basis Set <=

  Basis Set: (STO-3G AUX)
    Blend: DEF2-SVP-JKFIT
    Number of shells: 558
    Number of basis function: 1674
    Number of Cartesian functions: 1962
    Spherical Harmonics?: true
    Max angular momentum: 4

  Minimum eigenvalue in the overlap matrix is 1.7071922217E-01.
  Using Symmetric Orthogonalization.

  SCF Guess: Superposition of Atomic Densities via on-the-fly atomic UHF.

  ==> Iterations <==

                           Total Energy        Delta E     RMS |[F,P]|

   @DF-RHF iter   0:  -459.34146406901516   -4.59341e+02   4.95513e-02 
   @DF-RHF iter   1:  -455.69067717150165    3.65079e+00   2.52914e-03 
   @DF-RHF iter   2:  -455.76804242226819   -7.73653e-02   8.37356e-04 DIIS
   @DF-RHF iter   3:  -455.78028806669670   -1.22456e-02   2.11396e-04 DIIS
   @DF-RHF iter   4:  -455.78120945260957   -9.21386e-04   6.72598e-05 DIIS
   @DF-RHF iter   5:  -455.78129177549420   -8.23229e-05   1.73482e-05 DIIS
   @DF-RHF iter   6:  -455.78129608619969   -4.31071e-06   2.79088e-06 DIIS
   @DF-RHF iter   7:  -455.78129619641948   -1.10220e-07   1.03208e-06 DIIS
   @DF-RHF iter   8:  -455.78129620738338   -1.09639e-08   1.47790e-07 DIIS
   @DF-RHF iter   9:  -455.78129620771597   -3.32591e-10   3.81878e-08 DIIS

  ==> Post-Iterations <==

    Orbital Energies (a.u.)
    -----------------------

    Doubly Occupied:                                                      

       1A    -11.030580     2A    -11.030432     3A    -11.030314  
       4A    -11.030140     5A    -11.029721     6A    -11.029474  
       7A    -11.028770     8A    -11.028648     9A    -11.028302  
      10A    -11.028162    11A    -11.027820    12A    -11.027033  
      13A     -1.091913    14A     -1.089851    15A     -0.957178  
      16A     -0.956206    17A     -0.954078    18A     -0.953025  
      19A     -0.769111    20A     -0.768232    21A     -0.765694  
      22A     -0.764693    23A     -0.664383    24A     -0.659618  
      25A     -0.596328    26A     -0.591382    27A     -0.555415  
      28A     -0.553438    29A     -0.536552    30A     -0.536149  
      31A     -0.532098    32A     -0.529141    33A     -0.457977  
      34A     -0.455889    35A     -0.438630    36A     -0.436632  
      37A     -0.429495    38A     -0.425506    39A     -0.282510  
      40A     -0.280607    41A     -0.279871    42A     -0.278294  

    Virtual:                                                              

      43A      0.253242    44A      0.265666    45A      0.267318  
      46A      0.270413    47A      0.272046    48A      0.381306  
      49A      0.382276    50A      0.502849    51A      0.505312  
      52A      0.569153    53A      0.574354    54A      0.586088  
      55A      0.593129    56A      0.634682    57A      0.641976  
      58A      0.656184    59A      0.658714    60A      0.714852  
      61A      0.722117    62A      0.726308    63A      0.729835  
      64A      0.731229    65A      0.740502    66A      0.744153  
      67A      0.788506    68A      0.878103    69A      0.883286  
      70A      0.884549    71A      0.890025    72A      0.893466  
      73A      0.896588    74A      0.900251    75A      0.902084  
      76A      0.952133    77A      0.958457    78A      1.088180  
      79A      1.089891    80A      1.092504    81A      1.149686  
      82A      1.152379    83A      1.155630    84A      1.159093  
      85A      1.307080    86A      1.322440    87A      1.323516  
      88A      1.509354    89A      1.777659    90A      1.819956  
      91A      1.825992    92A      1.935473    93A      1.953560  
      94A      2.106357    95A      2.121137    96A      2.165637  
      97A      2.781457    98A      2.785265    99A      2.805723  
     100A      2.823917   101A      3.237452   102A      3.365350  
     103A     17.075743   104A     17.329337   105A     17.330527  
     106A     17.793310   107A     17.796721   108A     18.061710  

    Final Occupation by Irrep:
              A 
    DOCC [    42 ]

  Energy converged.

  @DF-RHF Final Energy:  -455.78129620771597

   => Energetics <=

    Nuclear Repulsion Energy =            569.6323148943218939
    One-Electron Energy =               -1748.9486319248503605
    Two-Electron Energy =                 723.5350208228123847
    DFT Exchange-Correlation Energy =       0.0000000000000000
    Empirical Dispersion Energy =           0.0000000000000000
    PCM Polarization Energy =               0.0000000000000000
    EFP Energy =                            0.0000000000000000
    Total Energy =                       -455.7812962077159682



Properties will be evaluated at   0.000000,   0.000000,   0.000000 Bohr

Properties computed using the SCF density matrix

  Nuclear Dipole Moment: (a.u.)
     X:    71.2051      Y:  -306.9856      Z:   277.7086

  Electronic Dipole Moment: (a.u.)
     X:   -71.1955      Y:   306.9982      Z:  -277.6891

  Dipole Moment: (a.u.)
     X:     0.0096      Y:     0.0126      Z:     0.0195     Total:     0.0251

  Dipole Moment: (Debye)
     X:     0.0244      Y:     0.0321      Z:     0.0496     Total:     0.0639


*** tstop() called on Magnesium at Tue Mar 20 22:42:41 2018
Module time:
	user time   =      17.92 seconds =       0.30 minutes
	system time =       0.89 seconds =       0.01 minutes
	total time  =         19 seconds =       0.32 minutes
Total time:
	user time   =      68.10 seconds =       1.14 minutes
	system time =       1.94 seconds =       0.03 minutes
	total time  =         71 seconds =       1.18 minutes

       N-Body: Complex Energy (fragments = (1, 3), basis = (1, 2, 3):  -455.78129620771597)

       N-Body: Computing complex (2/3) with fragments (2, 3) in the basis of fragments (1, 2, 3).


*** tstart() called on Magnesium
*** at Tue Mar 20 22:42:41 2018

   => Loading Basis Set <=

    Name: STO-3G
    Role: ORBITAL
    Keyword: BASIS
    atoms 1-6, 13-18, 25-30  entry H          line    18 file /home/carlosborca/psi4conda/share/psi4/basis/sto-3g.gbs 
    atoms 7-12, 19-24, 31-36 entry C          line    60 file /home/carlosborca/psi4conda/share/psi4/basis/sto-3g.gbs 

    There are an even number of electrons - assuming singlet.
    Specify the multiplicity in the molecule input block.


         ---------------------------------------------------------
                                   SCF
            by Justin Turney, Rob Parrish, and Andy Simmonett
                              RHF Reference
                        1 Threads,    476 MiB Core
         ---------------------------------------------------------

  ==> Geometry <==

    Molecular point group: c1
    Full point group: C1

    Geometry (in Bohr), charge = 0, multiplicity = 1:

       Center              X                  Y                   Z               Mass       
    ------------   -----------------  -----------------  -----------------  -----------------
           H(Gh)      2.762292060000    -5.112510430000     3.125888590000     1.007825032070
           H(Gh)     -1.066931820000   -11.097280660000    -2.948295910000     1.007825032070
           H(Gh)     -2.584935590000    -6.714620250000    -2.795154390000     1.007825032070
           H(Gh)      4.280295830000    -9.495170840000     2.972747080000     1.007825032070
           H(Gh)     -0.613066840000    -3.651030260000     0.247085470000     1.007825032070
           H(Gh)      2.308427080000   -12.558760830000    -0.069492790000     1.007825032070
           C(Gh)      1.922990980000    -6.399538650000     1.793943470000    12.000000000000
           C(Gh)     -0.227630740000    -9.810252440000    -1.616350790000    12.000000000000
           C(Gh)     -1.075310860000    -7.309181000000    -1.532702060000    12.000000000000
           C(Gh)      2.770671100000    -8.900610090000     1.710294750000    12.000000000000
           C(Gh)      0.000000000000    -5.625185570000     0.177592680000    12.000000000000
           C(Gh)      1.695360240000   -10.584605510000     0.000000000000    12.000000000000
           H         -8.049469880000     3.788099650000     3.125888590000     1.007825032070
           H         -4.220246000000    -2.196670570000    -2.948295910000     1.007825032070
           H         -2.702242230000     2.185989840000    -2.795154390000     1.007825032070
           H         -9.567473650000    -0.594560750000     2.972747080000     1.007825032070
           H         -4.674110980000     5.249579830000     0.247085470000     1.007825032070
           H         -7.595604900000    -3.658150750000    -0.069492790000     1.007825032070
           C         -7.210168800000     2.501071430000     1.793943470000    12.000000000000
           C         -5.059547080000    -0.909642350000    -1.616350790000    12.000000000000
           C         -4.211866960000     1.591429080000    -1.532702060000    12.000000000000
           C         -8.057848920000     0.000000000000     1.710294750000    12.000000000000
           C         -5.287177820000     3.275424510000     0.177592680000    12.000000000000
           C         -6.982538060000    -1.683995430000     0.000000000000    12.000000000000
           H          2.762292060000    -2.196670570000     9.560406080000     1.007825032070
           H         -1.066931820000     3.788099650000     3.486221570000     1.007825032070
           H         -2.584935590000    -0.594560750000     3.639363090000     1.007825032070
           H          4.280295830000     2.185989840000     9.407264560000     1.007825032070
           H         -0.613066840000    -3.658150750000     6.681602950000     1.007825032070
           H          2.308427080000     5.249579830000     6.365024690000     1.007825032070
           C          1.922990980000    -0.909642350000     8.228460960000    12.000000000000
           C         -0.227630740000     2.501071430000     4.818166690000    12.000000000000
           C         -1.075310860000     0.000000000000     4.901815420000    12.000000000000
           C          2.770671100000     1.591429080000     8.144812230000    12.000000000000
           C          0.000000000000    -1.683995430000     6.612110160000    12.000000000000
           C          1.695360240000     3.275424510000     6.434517480000    12.000000000000

  Running in c1 symmetry.

  Rotational constants: A =      0.00845  B =      0.00651  C =      0.00567 [cm^-1]
  Rotational constants: A =    253.29319  B =    195.02684  C =    170.10767 [MHz]
  Nuclear repulsion =  588.887665312377862

  Charge       = 0
  Multiplicity = 1
  Electrons    = 84
  Nalpha       = 42
  Nbeta        = 42

  ==> Algorithm <==

  SCF Algorithm Type is DF.
  DIIS enabled.
  MOM disabled.
  Fractional occupation disabled.
  Guess Type is SAD.
  Energy threshold   = 1.00e-08
  Density threshold  = 1.00e-06
  Integral threshold = 0.00e+00

  ==> Primary Basis <==

  Basis Set: STO-3G
    Blend: STO-3G
    Number of shells: 72
    Number of basis function: 108
    Number of Cartesian functions: 108
    Spherical Harmonics?: true
    Max angular momentum: 1

   => Loading Basis Set <=

    Name: (STO-3G AUX)
    Role: JKFIT
    Keyword: DF_BASIS_SCF
    atoms 1-6, 13-18, 25-30  entry H          line    22 file /home/carlosborca/psi4conda/share/psi4/basis/def2-svp-jkfit.gbs 
    atoms 7-12, 19-24, 31-36 entry C          line   202 file /home/carlosborca/psi4conda/share/psi4/basis/def2-svp-jkfit.gbs 

  ==> Pre-Iterations <==

   -------------------------------------------------------
    Irrep   Nso     Nmo     Nalpha   Nbeta   Ndocc  Nsocc
   -------------------------------------------------------
     A        108     108       0       0       0       0
   -------------------------------------------------------
    Total     108     108      42      42      42       0
   -------------------------------------------------------

  ==> Integral Setup <==

  ==> DFJK: Density-Fitted J/K Matrices <==

    J tasked:                  Yes
    K tasked:                  Yes
    wK tasked:                  No
    OpenMP threads:              1
    Integrals threads:           1
    Memory (MB):               357
    Algorithm:                Core
    Integral Cache:           NONE
    Schwarz Cutoff:          1E-12
    Fitting Condition:       1E-12

   => Auxiliary Basis Set <=

  Basis Set: (STO-3G AUX)
    Blend: DEF2-SVP-JKFIT
    Number of shells: 558
    Number of basis function: 1674
    Number of Cartesian functions: 1962
    Spherical Harmonics?: true
    Max angular momentum: 4

  Minimum eigenvalue in the overlap matrix is 1.7071922217E-01.
  Using Symmetric Orthogonalization.

  SCF Guess: Superposition of Atomic Densities via on-the-fly atomic UHF.

  ==> Iterations <==

                           Total Energy        Delta E     RMS |[F,P]|

   @DF-RHF iter   0:  -457.45982417661764   -4.57460e+02   4.78010e-02 
   @DF-RHF iter   1:  -455.60699949661210    1.85282e+00   3.96098e-03 
   @DF-RHF iter   2:  -455.76661433171000   -1.59615e-01   1.09396e-03 DIIS
   @DF-RHF iter   3:  -455.78050726649883   -1.38929e-02   2.88244e-04 DIIS
   @DF-RHF iter   4:  -455.78138218252218   -8.74916e-04   8.31781e-05 DIIS
   @DF-RHF iter   5:  -455.78151182980980   -1.29647e-04   2.68890e-05 DIIS
   @DF-RHF iter   6:  -455.78152805388896   -1.62241e-05   4.47566e-06 DIIS
   @DF-RHF iter   7:  -455.78152828785426   -2.33965e-07   1.48455e-06 DIIS
   @DF-RHF iter   8:  -455.78152831100681   -2.31526e-08   1.82180e-07 DIIS
   @DF-RHF iter   9:  -455.78152831156410   -5.57293e-10   4.61547e-08 DIIS

  ==> Post-Iterations <==

    Orbital Energies (a.u.)
    -----------------------

    Doubly Occupied:                                                      

       1A    -11.031995     2A    -11.031826     3A    -11.031716  
       4A    -11.031453     5A    -11.031017     6A    -11.030896  
       7A    -11.026432     8A    -11.026166     9A    -11.025978  
      10A    -11.025590    11A    -11.024668    12A    -11.024336  
      13A     -1.093532    14A     -1.087336    15A     -0.958426  
      16A     -0.956706    17A     -0.952496    18A     -0.950588  
      19A     -0.769850    20A     -0.768601    21A     -0.764191  
      22A     -0.762517    23A     -0.664278    24A     -0.658745  
      25A     -0.596008    26A     -0.590231    27A     -0.556650  
      28A     -0.551021    29A     -0.537414    30A     -0.534925  
      31A     -0.531654    32A     -0.528685    33A     -0.458677  
      34A     -0.453554    35A     -0.439570    36A     -0.434034  
      37A     -0.429688    38A     -0.423719    39A     -0.283645  
      40A     -0.281901    41A     -0.278284    42A     -0.275229  

    Virtual:                                                              

      43A      0.257043    44A      0.264740    45A      0.268382  
      46A      0.270429    47A      0.274235    48A      0.384875  
      49A      0.386278    50A      0.501477    51A      0.507434  
      52A      0.572098    53A      0.579974    54A      0.589718  
      55A      0.592274    56A      0.635820    57A      0.642726  
      58A      0.653577    59A      0.661649    60A      0.716768  
      61A      0.723439    62A      0.726350    63A      0.730323  
      64A      0.734615    65A      0.740273    66A      0.745806  
      67A      0.790710    68A      0.879944    69A      0.881873  
      70A      0.887168    71A      0.890033    72A      0.892280  
      73A      0.898259    74A      0.899048    75A      0.905366  
      76A      0.958471    77A      0.960594    78A      1.084479  
      79A      1.086895    80A      1.092650    81A      1.148338  
      82A      1.153079    83A      1.159740    84A      1.163812  
      85A      1.310535    86A      1.323918    87A      1.324490  
      88A      1.513086    89A      1.782154    90A      1.822592  
      91A      1.828177    92A      1.939157    93A      1.957448  
      94A      2.112034    95A      2.124061    96A      2.168315  
      97A      2.784609    98A      2.789298    99A      2.808884  
     100A      2.827451   101A      3.241019   102A      3.368590  
     103A     17.078302   104A     17.332484   105A     17.333931  
     106A     17.796419   107A     17.800205   108A     18.064989  

    Final Occupation by Irrep:
              A 
    DOCC [    42 ]

  Energy converged.

  @DF-RHF Final Energy:  -455.78152831156410

   => Energetics <=

    Nuclear Repulsion Energy =            588.8876653123778624
    One-Electron Energy =               -1787.5099292061297547
    Two-Electron Energy =                 742.8407355821879037
    DFT Exchange-Correlation Energy =       0.0000000000000000
    Empirical Dispersion Energy =           0.0000000000000000
    PCM Polarization Energy =               0.0000000000000000
    EFP Energy =                            0.0000000000000000
    Total Energy =                       -455.7815283115641023



Properties will be evaluated at   0.000000,   0.000000,   0.000000 Bohr

Properties computed using the SCF density matrix

  Nuclear Dipole Moment: (a.u.)
     X:  -222.0615      Y:    66.8400      Z:   277.7086

  Electronic Dipole Moment: (a.u.)
     X:   222.0075      Y:   -66.8339      Z:  -277.7451

  Dipole Moment: (a.u.)
     X:    -0.0540      Y:     0.0061      Z:    -0.0365     Total:     0.0655

  Dipole Moment: (Debye)
     X:    -0.1373      Y:     0.0156      Z:    -0.0927     Total:     0.1664


*** tstop() called on Magnesium at Tue Mar 20 22:43:00 2018
Module time:
	user time   =      17.94 seconds =       0.30 minutes
	system time =       0.91 seconds =       0.02 minutes
	total time  =         19 seconds =       0.32 minutes
Total time:
	user time   =      86.05 seconds =       1.43 minutes
	system time =       2.85 seconds =       0.05 minutes
	total time  =         90 seconds =       1.50 minutes

       N-Body: Complex Energy (fragments = (2, 3), basis = (1, 2, 3):  -455.78152831156410)

       N-Body: Computing complex (3/3) with fragments (1, 2) in the basis of fragments (1, 2, 3).


*** tstart() called on Magnesium
*** at Tue Mar 20 22:43:00 2018

   => Loading Basis Set <=

    Name: STO-3G
    Role: ORBITAL
    Keyword: BASIS
    atoms 1-6, 13-18, 25-30  entry H          line    18 file /home/carlosborca/psi4conda/share/psi4/basis/sto-3g.gbs 
    atoms 7-12, 19-24, 31-36 entry C          line    60 file /home/carlosborca/psi4conda/share/psi4/basis/sto-3g.gbs 

    There are an even number of electrons - assuming singlet.
    Specify the multiplicity in the molecule input block.


         ---------------------------------------------------------
                                   SCF
            by Justin Turney, Rob Parrish, and Andy Simmonett
                              RHF Reference
                        1 Threads,    476 MiB Core
         ---------------------------------------------------------

  ==> Geometry <==

    Molecular point group: c1
    Full point group: C1

    Geometry (in Bohr), charge = 0, multiplicity = 1:

       Center              X                  Y                   Z               Mass       
    ------------   -----------------  -----------------  -----------------  -----------------
           H          2.762292060000    -5.112510430000     3.125888590000     1.007825032070
           H         -1.066931820000   -11.097280660000    -2.948295910000     1.007825032070
           H         -2.584935590000    -6.714620250000    -2.795154390000     1.007825032070
           H          4.280295830000    -9.495170840000     2.972747080000     1.007825032070
           H         -0.613066840000    -3.651030260000     0.247085470000     1.007825032070
           H          2.308427080000   -12.558760830000    -0.069492790000     1.007825032070
           C          1.922990980000    -6.399538650000     1.793943470000    12.000000000000
           C         -0.227630740000    -9.810252440000    -1.616350790000    12.000000000000
           C         -1.075310860000    -7.309181000000    -1.532702060000    12.000000000000
           C          2.770671100000    -8.900610090000     1.710294750000    12.000000000000
           C          0.000000000000    -5.625185570000     0.177592680000    12.000000000000
           C          1.695360240000   -10.584605510000     0.000000000000    12.000000000000
           H         -8.049469880000     3.788099650000     3.125888590000     1.007825032070
           H         -4.220246000000    -2.196670570000    -2.948295910000     1.007825032070
           H         -2.702242230000     2.185989840000    -2.795154390000     1.007825032070
           H         -9.567473650000    -0.594560750000     2.972747080000     1.007825032070
           H         -4.674110980000     5.249579830000     0.247085470000     1.007825032070
           H         -7.595604900000    -3.658150750000    -0.069492790000     1.007825032070
           C         -7.210168800000     2.501071430000     1.793943470000    12.000000000000
           C         -5.059547080000    -0.909642350000    -1.616350790000    12.000000000000
           C         -4.211866960000     1.591429080000    -1.532702060000    12.000000000000
           C         -8.057848920000     0.000000000000     1.710294750000    12.000000000000
           C         -5.287177820000     3.275424510000     0.177592680000    12.000000000000
           C         -6.982538060000    -1.683995430000     0.000000000000    12.000000000000
           H(Gh)      2.762292060000    -2.196670570000     9.560406080000     1.007825032070
           H(Gh)     -1.066931820000     3.788099650000     3.486221570000     1.007825032070
           H(Gh)     -2.584935590000    -0.594560750000     3.639363090000     1.007825032070
           H(Gh)      4.280295830000     2.185989840000     9.407264560000     1.007825032070
           H(Gh)     -0.613066840000    -3.658150750000     6.681602950000     1.007825032070
           H(Gh)      2.308427080000     5.249579830000     6.365024690000     1.007825032070
           C(Gh)      1.922990980000    -0.909642350000     8.228460960000    12.000000000000
           C(Gh)     -0.227630740000     2.501071430000     4.818166690000    12.000000000000
           C(Gh)     -1.075310860000     0.000000000000     4.901815420000    12.000000000000
           C(Gh)      2.770671100000     1.591429080000     8.144812230000    12.000000000000
           C(Gh)      0.000000000000    -1.683995430000     6.612110160000    12.000000000000
           C(Gh)      1.695360240000     3.275424510000     6.434517480000    12.000000000000

  Running in c1 symmetry.

  Rotational constants: A =      0.00845  B =      0.00651  C =      0.00567 [cm^-1]
  Rotational constants: A =    253.29319  B =    195.02684  C =    170.10767 [MHz]
  Nuclear repulsion =  564.797879794083997

  Charge       = 0
  Multiplicity = 1
  Electrons    = 84
  Nalpha       = 42
  Nbeta        = 42

  ==> Algorithm <==

  SCF Algorithm Type is DF.
  DIIS enabled.
  MOM disabled.
  Fractional occupation disabled.
  Guess Type is SAD.
  Energy threshold   = 1.00e-08
  Density threshold  = 1.00e-06
  Integral threshold = 0.00e+00

  ==> Primary Basis <==

  Basis Set: STO-3G
    Blend: STO-3G
    Number of shells: 72
    Number of basis function: 108
    Number of Cartesian functions: 108
    Spherical Harmonics?: true
    Max angular momentum: 1

   => Loading Basis Set <=

    Name: (STO-3G AUX)
    Role: JKFIT
    Keyword: DF_BASIS_SCF
    atoms 1-6, 13-18, 25-30  entry H          line    22 file /home/carlosborca/psi4conda/share/psi4/basis/def2-svp-jkfit.gbs 
    atoms 7-12, 19-24, 31-36 entry C          line   202 file /home/carlosborca/psi4conda/share/psi4/basis/def2-svp-jkfit.gbs 

  ==> Pre-Iterations <==

   -------------------------------------------------------
    Irrep   Nso     Nmo     Nalpha   Nbeta   Ndocc  Nsocc
   -------------------------------------------------------
     A        108     108       0       0       0       0
   -------------------------------------------------------
    Total     108     108      42      42      42       0
   -------------------------------------------------------

  ==> Integral Setup <==

  ==> DFJK: Density-Fitted J/K Matrices <==

    J tasked:                  Yes
    K tasked:                  Yes
    wK tasked:                  No
    OpenMP threads:              1
    Integrals threads:           1
    Memory (MB):               357
    Algorithm:                Core
    Integral Cache:           NONE
    Schwarz Cutoff:          1E-12
    Fitting Condition:       1E-12

   => Auxiliary Basis Set <=

  Basis Set: (STO-3G AUX)
    Blend: DEF2-SVP-JKFIT
    Number of shells: 558
    Number of basis function: 1674
    Number of Cartesian functions: 1962
    Spherical Harmonics?: true
    Max angular momentum: 4

  Minimum eigenvalue in the overlap matrix is 1.7071922217E-01.
  Using Symmetric Orthogonalization.

  SCF Guess: Superposition of Atomic Densities via on-the-fly atomic UHF.

  ==> Iterations <==

                           Total Energy        Delta E     RMS |[F,P]|

   @DF-RHF iter   0:  -457.45593476532281   -4.57456e+02   4.78151e-02 
   @DF-RHF iter   1:  -455.59777878337684    1.85816e+00   3.98145e-03 
   @DF-RHF iter   2:  -455.76393748050094   -1.66159e-01   1.15438e-03 DIIS
   @DF-RHF iter   3:  -455.78056726895113   -1.66298e-02   3.32658e-04 DIIS
   @DF-RHF iter   4:  -455.78183991469177   -1.27265e-03   1.02465e-04 DIIS
   @DF-RHF iter   5:  -455.78205398721400   -2.14073e-04   2.67425e-05 DIIS
   @DF-RHF iter   6:  -455.78206952257415   -1.55354e-05   4.63144e-06 DIIS
   @DF-RHF iter   7:  -455.78206974609543   -2.23521e-07   1.44053e-06 DIIS
   @DF-RHF iter   8:  -455.78206976856814   -2.24727e-08   1.88020e-07 DIIS
   @DF-RHF iter   9:  -455.78206976919068   -6.22549e-10   4.89649e-08 DIIS

  ==> Post-Iterations <==

    Orbital Energies (a.u.)
    -----------------------

    Doubly Occupied:                                                      

       1A    -11.030865     2A    -11.030741     3A    -11.030579  
       4A    -11.030355     5A    -11.029861     6A    -11.029700  
       7A    -11.028963     8A    -11.028790     9A    -11.028681  
      10A    -11.028241    11A    -11.028134    12A    -11.027707  
      13A     -1.091957    14A     -1.090080    15A     -0.957587  
      16A     -0.955383    17A     -0.955048    18A     -0.953105  
      19A     -0.769675    20A     -0.767223    21A     -0.766662  
      22A     -0.764951    23A     -0.664597    24A     -0.659850  
      25A     -0.594901    26A     -0.593271    27A     -0.555502  
      28A     -0.553740    29A     -0.538362    30A     -0.534443  
      31A     -0.532774    32A     -0.528983    33A     -0.458137  
      34A     -0.456142    35A     -0.439099    36A     -0.436386  
      37A     -0.428745    38A     -0.426913    39A     -0.282336  
      40A     -0.280505    41A     -0.280077    42A     -0.278764  

    Virtual:                                                              

      43A      0.258090    44A      0.265617    45A      0.267389  
      46A      0.269987    47A      0.271969    48A      0.386070  
      49A      0.386820    50A      0.502797    51A      0.504882  
      52A      0.567752    53A      0.581810    54A      0.588481  
      55A      0.593661    56A      0.635280    57A      0.639937  
      58A      0.652233    59A      0.663062    60A      0.714621  
      61A      0.721781    62A      0.727058    63A      0.728206  
      64A      0.734091    65A      0.742374    66A      0.748354  
      67A      0.790843    68A      0.877908    69A      0.882500  
      70A      0.886538    71A      0.886646    72A      0.893511  
      73A      0.897263    74A      0.900118    75A      0.906123  
      76A      0.957066    77A      0.961048    78A      1.086363  
      79A      1.088027    80A      1.089963    81A      1.149504  
      82A      1.151808    83A      1.161230    84A      1.162639  
      85A      1.311296    86A      1.325317    87A      1.326377  
      88A      1.514080    89A      1.782802    90A      1.823863  
      91A      1.829394    92A      1.940072    93A      1.957822  
      94A      2.111424    95A      2.126233    96A      2.169440  
      97A      2.786471    98A      2.789463    99A      2.809961  
     100A      2.828072   101A      3.242007   102A      3.369514  
     103A     17.079231   104A     17.333608   105A     17.334653  
     106A     17.797681   107A     17.800757   108A     18.065907  

    Final Occupation by Irrep:
              A 
    DOCC [    42 ]

  Energy converged.

  @DF-RHF Final Energy:  -455.78206976919068

   => Energetics <=

    Nuclear Repulsion Energy =            564.7978797940839968
    One-Electron Energy =               -1739.2642626547581131
    Two-Electron Energy =                 718.6843130914833182
    DFT Exchange-Correlation Energy =       0.0000000000000000
    Empirical Dispersion Energy =           0.0000000000000000
    PCM Polarization Energy =               0.0000000000000000
    EFP Energy =                            0.0000000000000000
    Total Energy =                       -455.7820697691906844



Properties will be evaluated at   0.000000,   0.000000,   0.000000 Bohr

Properties computed using the SCF density matrix

  Nuclear Dipole Moment: (a.u.)
     X:  -222.0615      Y:  -306.9856      Z:     7.4589

  Electronic Dipole Moment: (a.u.)
     X:   222.0436      Y:   306.9998      Z:    -7.4581

  Dipole Moment: (a.u.)
     X:    -0.0179      Y:     0.0142      Z:     0.0008     Total:     0.0228

  Dipole Moment: (Debye)
     X:    -0.0455      Y:     0.0360      Z:     0.0020     Total:     0.0581


*** tstop() called on Magnesium at Tue Mar 20 22:43:19 2018
Module time:
	user time   =      17.92 seconds =       0.30 minutes
	system time =       0.98 seconds =       0.02 minutes
	total time  =         19 seconds =       0.32 minutes
Total time:
	user time   =     103.97 seconds =       1.73 minutes
	system time =       3.83 seconds =       0.06 minutes
	total time  =        109 seconds =       1.82 minutes

       N-Body: Complex Energy (fragments = (1, 2), basis = (1, 2, 3):  -455.78206976919068)

   ==> N-Body: Now computing 3-body complexes <==


       N-Body: Computing complex (1/1) with fragments (1, 2, 3) in the basis of fragments (1, 2, 3).


*** tstart() called on Magnesium
*** at Tue Mar 20 22:43:19 2018

   => Loading Basis Set <=

    Name: STO-3G
    Role: ORBITAL
    Keyword: BASIS
    atoms 1-6, 13-18, 25-30  entry H          line    18 file /home/carlosborca/psi4conda/share/psi4/basis/sto-3g.gbs 
    atoms 7-12, 19-24, 31-36 entry C          line    60 file /home/carlosborca/psi4conda/share/psi4/basis/sto-3g.gbs 

    There are an even number of electrons - assuming singlet.
    Specify the multiplicity in the molecule input block.


         ---------------------------------------------------------
                                   SCF
            by Justin Turney, Rob Parrish, and Andy Simmonett
                              RHF Reference
                        1 Threads,    476 MiB Core
         ---------------------------------------------------------

  ==> Geometry <==

    Molecular point group: c1
    Full point group: C1

    Geometry (in Bohr), charge = 0, multiplicity = 1:

       Center              X                  Y                   Z               Mass       
    ------------   -----------------  -----------------  -----------------  -----------------
           H          2.762292060000    -5.112510430000     3.125888590000     1.007825032070
           H         -1.066931820000   -11.097280660000    -2.948295910000     1.007825032070
           H         -2.584935590000    -6.714620250000    -2.795154390000     1.007825032070
           H          4.280295830000    -9.495170840000     2.972747080000     1.007825032070
           H         -0.613066840000    -3.651030260000     0.247085470000     1.007825032070
           H          2.308427080000   -12.558760830000    -0.069492790000     1.007825032070
           C          1.922990980000    -6.399538650000     1.793943470000    12.000000000000
           C         -0.227630740000    -9.810252440000    -1.616350790000    12.000000000000
           C         -1.075310860000    -7.309181000000    -1.532702060000    12.000000000000
           C          2.770671100000    -8.900610090000     1.710294750000    12.000000000000
           C          0.000000000000    -5.625185570000     0.177592680000    12.000000000000
           C          1.695360240000   -10.584605510000     0.000000000000    12.000000000000
           H         -8.049469880000     3.788099650000     3.125888590000     1.007825032070
           H         -4.220246000000    -2.196670570000    -2.948295910000     1.007825032070
           H         -2.702242230000     2.185989840000    -2.795154390000     1.007825032070
           H         -9.567473650000    -0.594560750000     2.972747080000     1.007825032070
           H         -4.674110980000     5.249579830000     0.247085470000     1.007825032070
           H         -7.595604900000    -3.658150750000    -0.069492790000     1.007825032070
           C         -7.210168800000     2.501071430000     1.793943470000    12.000000000000
           C         -5.059547080000    -0.909642350000    -1.616350790000    12.000000000000
           C         -4.211866960000     1.591429080000    -1.532702060000    12.000000000000
           C         -8.057848920000     0.000000000000     1.710294750000    12.000000000000
           C         -5.287177820000     3.275424510000     0.177592680000    12.000000000000
           C         -6.982538060000    -1.683995430000     0.000000000000    12.000000000000
           H          2.762292060000    -2.196670570000     9.560406080000     1.007825032070
           H         -1.066931820000     3.788099650000     3.486221570000     1.007825032070
           H         -2.584935590000    -0.594560750000     3.639363090000     1.007825032070
           H          4.280295830000     2.185989840000     9.407264560000     1.007825032070
           H         -0.613066840000    -3.658150750000     6.681602950000     1.007825032070
           H          2.308427080000     5.249579830000     6.365024690000     1.007825032070
           C          1.922990980000    -0.909642350000     8.228460960000    12.000000000000
           C         -0.227630740000     2.501071430000     4.818166690000    12.000000000000
           C         -1.075310860000     0.000000000000     4.901815420000    12.000000000000
           C          2.770671100000     1.591429080000     8.144812230000    12.000000000000
           C          0.000000000000    -1.683995430000     6.612110160000    12.000000000000
           C          1.695360240000     3.275424510000     6.434517480000    12.000000000000

  Running in c1 symmetry.

  Rotational constants: A =      0.00845  B =      0.00651  C =      0.00567 [cm^-1]
  Rotational constants: A =    253.29319  B =    195.02684  C =    170.10767 [MHz]
  Nuclear repulsion = 1112.571843019731887

  Charge       = 0
  Multiplicity = 1
  Electrons    = 126
  Nalpha       = 63
  Nbeta        = 63

  ==> Algorithm <==

  SCF Algorithm Type is DF.
  DIIS enabled.
  MOM disabled.
  Fractional occupation disabled.
  Guess Type is SAD.
  Energy threshold   = 1.00e-08
  Density threshold  = 1.00e-06
  Integral threshold = 0.00e+00

  ==> Primary Basis <==

  Basis Set: STO-3G
    Blend: STO-3G
    Number of shells: 72
    Number of basis function: 108
    Number of Cartesian functions: 108
    Spherical Harmonics?: true
    Max angular momentum: 1

   => Loading Basis Set <=

    Name: (STO-3G AUX)
    Role: JKFIT
    Keyword: DF_BASIS_SCF
    atoms 1-6, 13-18, 25-30  entry H          line    22 file /home/carlosborca/psi4conda/share/psi4/basis/def2-svp-jkfit.gbs 
    atoms 7-12, 19-24, 31-36 entry C          line   202 file /home/carlosborca/psi4conda/share/psi4/basis/def2-svp-jkfit.gbs 

  ==> Pre-Iterations <==

   -------------------------------------------------------
    Irrep   Nso     Nmo     Nalpha   Nbeta   Ndocc  Nsocc
   -------------------------------------------------------
     A        108     108       0       0       0       0
   -------------------------------------------------------
    Total     108     108      63      63      63       0
   -------------------------------------------------------

  ==> Integral Setup <==

  ==> DFJK: Density-Fitted J/K Matrices <==

    J tasked:                  Yes
    K tasked:                  Yes
    wK tasked:                  No
    OpenMP threads:              1
    Integrals threads:           1
    Memory (MB):               357
    Algorithm:                Core
    Integral Cache:           NONE
    Schwarz Cutoff:          1E-12
    Fitting Condition:       1E-12

   => Auxiliary Basis Set <=

  Basis Set: (STO-3G AUX)
    Blend: DEF2-SVP-JKFIT
    Number of shells: 558
    Number of basis function: 1674
    Number of Cartesian functions: 1962
    Spherical Harmonics?: true
    Max angular momentum: 4

  Minimum eigenvalue in the overlap matrix is 1.7071922217E-01.
  Using Symmetric Orthogonalization.

  SCF Guess: Superposition of Atomic Densities via on-the-fly atomic UHF.

  ==> Iterations <==

                           Total Energy        Delta E     RMS |[F,P]|

   @DF-RHF iter   0:  -687.12994651521512   -6.87130e+02   5.92782e-02 
   @DF-RHF iter   1:  -683.44002013941440    3.68993e+00   4.37183e-03 
   @DF-RHF iter   2:  -683.64578833027258   -2.05768e-01   1.29429e-03 DIIS
   @DF-RHF iter   3:  -683.66841214070848   -2.26238e-02   3.66679e-04 DIIS
   @DF-RHF iter   4:  -683.67015860881270   -1.74647e-03   1.26459e-04 DIIS
   @DF-RHF iter   5:  -683.67047847421122   -3.19865e-04   3.20233e-05 DIIS
   @DF-RHF iter   6:  -683.67049945107362   -2.09769e-05   6.35239e-06 DIIS
   @DF-RHF iter   7:  -683.67049986143695   -4.10363e-07   1.76639e-06 DIIS
   @DF-RHF iter   8:  -683.67049989813347   -3.66965e-08   2.42094e-07 DIIS
   @DF-RHF iter   9:  -683.67049989917348   -1.04001e-09   6.83548e-08 DIIS

  ==> Post-Iterations <==

    Orbital Energies (a.u.)
    -----------------------

    Doubly Occupied:                                                      

       1A    -11.032589     2A    -11.032373     3A    -11.032312  
       4A    -11.032010     5A    -11.031589     6A    -11.031351  
       7A    -11.028122     8A    -11.027996     9A    -11.027670  
      10A    -11.027389    11A    -11.027284    12A    -11.027005  
      13A    -11.026860    14A    -11.026558    15A    -11.026245  
      16A    -11.026064    17A    -11.025459    18A    -11.025185  
      19A     -1.094257    20A     -1.089345    21A     -1.088202  
      22A     -0.959402    23A     -0.957334    24A     -0.954902  
      25A     -0.953332    26A     -0.952687    27A     -0.950926  
      28A     -0.771042    29A     -0.769358    30A     -0.766610  
      31A     -0.765751    32A     -0.763860    33A     -0.762604  
      34A     -0.666152    35A     -0.661389    36A     -0.657677  
      37A     -0.596788    38A     -0.594029    39A     -0.589490  
      40A     -0.557286    41A     -0.552904    42A     -0.551827  
      43A     -0.539582    44A     -0.535586    45A     -0.534936  
      46A     -0.533105    47A     -0.529425    48A     -0.526650  
      49A     -0.459428    50A     -0.455596    51A     -0.454291  
      52A     -0.440378    53A     -0.435675    54A     -0.434959  
      55A     -0.430286    56A     -0.426871    57A     -0.423275  
      58A     -0.284232    59A     -0.282557    60A     -0.280128  
      61A     -0.278803    62A     -0.277620    63A     -0.276186  

    Virtual:                                                              

      64A      0.263704    65A      0.267723    66A      0.267984  
      67A      0.269372    68A      0.272655    69A      0.273726  
      70A      0.500645    71A      0.505353    72A      0.506938  
      73A      0.565943    74A      0.581205    75A      0.585227  
      76A      0.633255    77A      0.637789    78A      0.642331  
      79A      0.653093    80A      0.661578    81A      0.664161  
      82A      0.714181    83A      0.722236    84A      0.724222  
      85A      0.725836    86A      0.729148    87A      0.732788  
      88A      0.737958    89A      0.745740    90A      0.748062  
      91A      0.877266    92A      0.880148    93A      0.882082  
      94A      0.886104    95A      0.889304    96A      0.891760  
      97A      0.893400    98A      0.897097    99A      0.898277  
     100A      0.899803   101A      0.904826   102A      0.906956  
     103A      1.086295   104A      1.090816   105A      1.091855  
     106A      1.148402   107A      1.152712   108A      1.156149  

    Final Occupation by Irrep:
              A 
    DOCC [    63 ]

  Energy converged.

  @DF-RHF Final Energy:  -683.67049989917348

   => Energetics <=

    Nuclear Repulsion Energy =           1112.5718430197318867
    One-Electron Energy =               -3139.7230989801655596
    Two-Electron Energy =                1343.4807560612603083
    DFT Exchange-Correlation Energy =       0.0000000000000000
    Empirical Dispersion Energy =           0.0000000000000000
    PCM Polarization Energy =               0.0000000000000000
    EFP Energy =                            0.0000000000000000
    Total Energy =                       -683.6704998991733646



Properties will be evaluated at   0.000000,   0.000000,   0.000000 Bohr

Properties computed using the SCF density matrix

  Nuclear Dipole Moment: (a.u.)
     X:  -186.4589      Y:  -273.5656      Z:   281.4381

  Electronic Dipole Moment: (a.u.)
     X:   186.4085      Y:   273.5936      Z:  -281.4507

  Dipole Moment: (a.u.)
     X:    -0.0504      Y:     0.0280      Z:    -0.0126     Total:     0.0590

  Dipole Moment: (Debye)
     X:    -0.1281      Y:     0.0712      Z:    -0.0320     Total:     0.1500


*** tstop() called on Magnesium at Tue Mar 20 22:43:39 2018
Module time:
	user time   =      18.61 seconds =       0.31 minutes
	system time =       1.34 seconds =       0.02 minutes
	total time  =         20 seconds =       0.33 minutes
Total time:
	user time   =     122.60 seconds =       2.04 minutes
	system time =       5.17 seconds =       0.09 minutes
	total time  =        129 seconds =       2.15 minutes

       N-Body: Complex Energy (fragments = (1, 2, 3), basis = (1, 2, 3):  -683.67049989917348)

   ==> N-Body: Counterpoise Corrected (CP)  energies <==

   n-Body     Total Energy [Eh]       I.E. [kcal/mol]      Delta [kcal/mol]
        1     -683.674421659250        0.000000000000        0.000000000000
        2     -683.670472629220        2.478053859655        2.478053859655
        3     -683.670499899173        2.460941704962       -0.017112154693

   => Loading Basis Set <=

    Name: STO-3G
    Role: ORBITAL
    Keyword: BASIS
    atoms 1-6, 13-18, 25-30  entry H          line    18 file /home/carlosborca/psi4conda/share/psi4/basis/sto-3g.gbs 
    atoms 7-12, 19-24, 31-36 entry C          line    60 file /home/carlosborca/psi4conda/share/psi4/basis/sto-3g.gbs 

    There are an even number of electrons - assuming singlet.
    Specify the multiplicity in the molecule input block.


*** Psi4 exiting successfully. Buy a developer a beer!
