
    -----------------------------------------------------------------------
          Psi4: An Open-Source Ab Initio Electronic Structure Package
                               Psi4 1.1 release

                         Git: Rev {HEAD} add49b9 


    R. M. Parrish, L. A. Burns, D. G. A. Smith, A. C. Simmonett,
    A. E. DePrince III, E. G. Hohenstein, U. Bozkaya, A. Yu. Sokolov,
    R. Di Remigio, R. M. Richard, J. F. Gonthier, A. M. James,
    H. R. McAlexander, A. Kumar, M. Saitow, X. Wang, B. P. Pritchard,
    P. Verma, H. F. Schaefer III, K. Patkowski, R. A. King, E. F. Valeev,
    F. A. Evangelista, J. M. Turney, T. D. Crawford, and C. D. Sherrill,
    J. Chem. Theory Comput. in press (2017).
    (doi: 10.1021/acs.jctc.7b00174)

    -----------------------------------------------------------------------


    Psi4 started on: Tuesday, 20 March 2018 10:52PM

    Process ID:   1025
    PSIDATADIR: /home/carlosborca/psi4conda/share/psi4
    Memory:     500.0 MiB
    Threads:    4
    
  ==> Input File <==

--------------------------------------------------------------------------
# PSI4 file produced by CrystaLattE

# Psithon input for N-mer:     4mer-0+1+2+6
# Number of replicas:          1
# Priority index for input:    3.17543624e-13
# Minimum monomer separations: 2.544  2.544  2.632  2.632  2.680  2.680 
# Minimum COM separations:     5.025  5.025  5.812  5.812  5.986  5.986 

memory 500 MB

molecule Tetramer_0_1_2_6 {
  H            2.76229206      -5.11251043       3.12588859 
  H           -1.06693182     -11.09728066      -2.94829591 
  H           -2.58493559      -6.71462025      -2.79515439 
  H            4.28029583      -9.49517084       2.97274708 
  H           -0.61306684      -3.65103026       0.24708547 
  H            2.30842708     -12.55876083      -0.06949279 
  C            1.92299098      -6.39953865       1.79394347 
  C           -0.22763074      -9.81025244      -1.61635079 
  C           -1.07531086      -7.30918100      -1.53270206 
  C            2.77067110      -8.90061009       1.71029475 
  C            0.00000000      -5.62518557       0.17759268 
  C            1.69536024     -10.58460551      -0.00000000 
--
  H           -8.04946988       3.78809965       3.12588859 
  H           -4.22024600      -2.19667057      -2.94829591 
  H           -2.70224223       2.18598984      -2.79515439 
  H           -9.56747365      -0.59456075       2.97274708 
  H           -4.67411098       5.24957983       0.24708547 
  H           -7.59560490      -3.65815075      -0.06949279 
  C           -7.21016880       2.50107143       1.79394347 
  C           -5.05954708      -0.90964235      -1.61635079 
  C           -4.21186696       1.59142908      -1.53270206 
  C           -8.05784892       0.00000000       1.71029475 
  C           -5.28717782       3.27542451       0.17759268 
  C           -6.98253806      -1.68399543      -0.00000000 
--
  H            2.76229206      -2.19667057       9.56040608 
  H           -1.06693182       3.78809965       3.48622157 
  H           -2.58493559      -0.59456075       3.63936309 
  H            4.28029583       2.18598984       9.40726456 
  H           -0.61306684      -3.65815075       6.68160295 
  H            2.30842708       5.24957983       6.36502469 
  C            1.92299098      -0.90964235       8.22846096 
  C           -0.22763074       2.50107143       4.81816669 
  C           -1.07531086       0.00000000       4.90181542 
  C            2.77067110       1.59142908       8.14481223 
  C            0.00000000      -1.68399543       6.61211016 
  C            1.69536024       3.27542451       6.43451748 
--
  H           -4.67411098     -12.55876083       6.68160295 
  H           -2.70224223      -9.49517084       3.63936309 
  H           -8.04946988     -11.09728066       9.56040608 
  H           -4.22024600      -5.11251043       3.48622157 
  H           -9.56747365      -6.71462025       9.40726456 
  H           -7.59560490      -3.65103026       6.36502469 
  C           -5.28717782     -10.58460551       6.61211016 
  C           -4.21186696      -8.90061009       4.90181542 
  C           -7.21016880      -9.81025244       8.22846096 
  C           -5.05954708      -6.39953865       4.81816669 
  C           -8.05784892      -7.30918100       8.14481223 
  C           -6.98253806      -5.62518557       6.43451748 
units = au
no_com
no_reorient
}

set {
  e_convergence 8
  scf_type df
  mp2_type df
  cc_type df
  freeze_core true
}

energy('scf/STO-3G', bsse_type = 'cp')

--------------------------------------------------------------------------

  Memory set to 476.837 MiB by Python driver.


   ===> N-Body Interaction Abacus <===
        BSSE Treatment:                     cp
        Number of 1-body computations:     4
        Number of 2-body computations:     6
        Number of 3-body computations:     4
        Number of 4-body computations:     1

   ==> N-Body: Now computing 1-body complexes <==


       N-Body: Computing complex (1/4) with fragments (3,) in the basis of fragments (1, 2, 3, 4).


*** tstart() called on Magnesium
*** at Tue Mar 20 22:52:22 2018

   => Loading Basis Set <=

    Name: STO-3G
    Role: ORBITAL
    Keyword: BASIS
    atoms 1-6, 13-18, 25-30, 37-42  entry H          line    18 file /home/carlosborca/psi4conda/share/psi4/basis/sto-3g.gbs 
    atoms 7-12, 19-24, 31-36, 43-48 entry C          line    60 file /home/carlosborca/psi4conda/share/psi4/basis/sto-3g.gbs 

    There are an even number of electrons - assuming singlet.
    Specify the multiplicity in the molecule input block.


         ---------------------------------------------------------
                                   SCF
            by Justin Turney, Rob Parrish, and Andy Simmonett
                              RHF Reference
                        4 Threads,    476 MiB Core
         ---------------------------------------------------------

  ==> Geometry <==

    Molecular point group: c1
    Full point group: C1

    Geometry (in Bohr), charge = 0, multiplicity = 1:

       Center              X                  Y                   Z               Mass       
    ------------   -----------------  -----------------  -----------------  -----------------
           H(Gh)      2.762292060000    -5.112510430000     3.125888590000     1.007825032070
           H(Gh)     -1.066931820000   -11.097280660000    -2.948295910000     1.007825032070
           H(Gh)     -2.584935590000    -6.714620250000    -2.795154390000     1.007825032070
           H(Gh)      4.280295830000    -9.495170840000     2.972747080000     1.007825032070
           H(Gh)     -0.613066840000    -3.651030260000     0.247085470000     1.007825032070
           H(Gh)      2.308427080000   -12.558760830000    -0.069492790000     1.007825032070
           C(Gh)      1.922990980000    -6.399538650000     1.793943470000    12.000000000000
           C(Gh)     -0.227630740000    -9.810252440000    -1.616350790000    12.000000000000
           C(Gh)     -1.075310860000    -7.309181000000    -1.532702060000    12.000000000000
           C(Gh)      2.770671100000    -8.900610090000     1.710294750000    12.000000000000
           C(Gh)      0.000000000000    -5.625185570000     0.177592680000    12.000000000000
           C(Gh)      1.695360240000   -10.584605510000     0.000000000000    12.000000000000
           H(Gh)     -8.049469880000     3.788099650000     3.125888590000     1.007825032070
           H(Gh)     -4.220246000000    -2.196670570000    -2.948295910000     1.007825032070
           H(Gh)     -2.702242230000     2.185989840000    -2.795154390000     1.007825032070
           H(Gh)     -9.567473650000    -0.594560750000     2.972747080000     1.007825032070
           H(Gh)     -4.674110980000     5.249579830000     0.247085470000     1.007825032070
           H(Gh)     -7.595604900000    -3.658150750000    -0.069492790000     1.007825032070
           C(Gh)     -7.210168800000     2.501071430000     1.793943470000    12.000000000000
           C(Gh)     -5.059547080000    -0.909642350000    -1.616350790000    12.000000000000
           C(Gh)     -4.211866960000     1.591429080000    -1.532702060000    12.000000000000
           C(Gh)     -8.057848920000     0.000000000000     1.710294750000    12.000000000000
           C(Gh)     -5.287177820000     3.275424510000     0.177592680000    12.000000000000
           C(Gh)     -6.982538060000    -1.683995430000     0.000000000000    12.000000000000
           H          2.762292060000    -2.196670570000     9.560406080000     1.007825032070
           H         -1.066931820000     3.788099650000     3.486221570000     1.007825032070
           H         -2.584935590000    -0.594560750000     3.639363090000     1.007825032070
           H          4.280295830000     2.185989840000     9.407264560000     1.007825032070
           H         -0.613066840000    -3.658150750000     6.681602950000     1.007825032070
           H          2.308427080000     5.249579830000     6.365024690000     1.007825032070
           C          1.922990980000    -0.909642350000     8.228460960000    12.000000000000
           C         -0.227630740000     2.501071430000     4.818166690000    12.000000000000
           C         -1.075310860000     0.000000000000     4.901815420000    12.000000000000
           C          2.770671100000     1.591429080000     8.144812230000    12.000000000000
           C          0.000000000000    -1.683995430000     6.612110160000    12.000000000000
           C          1.695360240000     3.275424510000     6.434517480000    12.000000000000
           H(Gh)     -4.674110980000   -12.558760830000     6.681602950000     1.007825032070
           H(Gh)     -2.702242230000    -9.495170840000     3.639363090000     1.007825032070
           H(Gh)     -8.049469880000   -11.097280660000     9.560406080000     1.007825032070
           H(Gh)     -4.220246000000    -5.112510430000     3.486221570000     1.007825032070
           H(Gh)     -9.567473650000    -6.714620250000     9.407264560000     1.007825032070
           H(Gh)     -7.595604900000    -3.651030260000     6.365024690000     1.007825032070
           C(Gh)     -5.287177820000   -10.584605510000     6.612110160000    12.000000000000
           C(Gh)     -4.211866960000    -8.900610090000     4.901815420000    12.000000000000
           C(Gh)     -7.210168800000    -9.810252440000     8.228460960000    12.000000000000
           C(Gh)     -5.059547080000    -6.399538650000     4.818166690000    12.000000000000
           C(Gh)     -8.057848920000    -7.309181000000     8.144812230000    12.000000000000
           C(Gh)     -6.982538060000    -5.625185570000     6.434517480000    12.000000000000

  Running in c1 symmetry.

  Rotational constants: A =      0.00604  B =      0.00305  C =      0.00283 [cm^-1]
  Rotational constants: A =    181.04832  B =     91.30397  C =     84.77358 [MHz]
  Nuclear repulsion =  203.582005637321913

  Charge       = 0
  Multiplicity = 1
  Electrons    = 42
  Nalpha       = 21
  Nbeta        = 21

  ==> Algorithm <==

  SCF Algorithm Type is DF.
  DIIS enabled.
  MOM disabled.
  Fractional occupation disabled.
  Guess Type is SAD.
  Energy threshold   = 1.00e-08
  Density threshold  = 1.00e-06
  Integral threshold = 0.00e+00

  ==> Primary Basis <==

  Basis Set: STO-3G
    Blend: STO-3G
    Number of shells: 96
    Number of basis function: 144
    Number of Cartesian functions: 144
    Spherical Harmonics?: true
    Max angular momentum: 1

   => Loading Basis Set <=

    Name: (STO-3G AUX)
    Role: JKFIT
    Keyword: DF_BASIS_SCF
    atoms 1-6, 13-18, 25-30, 37-42  entry H          line    22 file /home/carlosborca/psi4conda/share/psi4/basis/def2-svp-jkfit.gbs 
    atoms 7-12, 19-24, 31-36, 43-48 entry C          line   202 file /home/carlosborca/psi4conda/share/psi4/basis/def2-svp-jkfit.gbs 

  ==> Pre-Iterations <==

   -------------------------------------------------------
    Irrep   Nso     Nmo     Nalpha   Nbeta   Ndocc  Nsocc
   -------------------------------------------------------
     A        144     144       0       0       0       0
   -------------------------------------------------------
    Total     144     144      21      21      21       0
   -------------------------------------------------------

  ==> Integral Setup <==

  ==> DFJK: Density-Fitted J/K Matrices <==

    J tasked:                  Yes
    K tasked:                  Yes
    wK tasked:                  No
    OpenMP threads:              4
    Integrals threads:           4
    Memory (MB):               357
    Algorithm:                Core
    Integral Cache:           NONE
    Schwarz Cutoff:          1E-12
    Fitting Condition:       1E-12

   => Auxiliary Basis Set <=

  Basis Set: (STO-3G AUX)
    Blend: DEF2-SVP-JKFIT
    Number of shells: 744
    Number of basis function: 2232
    Number of Cartesian functions: 2616
    Spherical Harmonics?: true
    Max angular momentum: 4

  Minimum eigenvalue in the overlap matrix is 1.7071019530E-01.
  Using Symmetric Orthogonalization.

  SCF Guess: Superposition of Atomic Densities via on-the-fly atomic UHF.

  ==> Iterations <==

                           Total Energy        Delta E     RMS |[F,P]|

   @DF-RHF iter   0:  -229.70379457162431   -2.29704e+02   5.26049e-02 
   @DF-RHF iter   1:  -227.85092035745794    1.85287e+00   2.58015e-03 
   @DF-RHF iter   2:  -227.88576918248799   -3.48488e-02   8.26547e-04 DIIS
   @DF-RHF iter   3:  -227.89096519969883   -5.19602e-03   1.51570e-04 DIIS
   @DF-RHF iter   4:  -227.89138936214405   -4.24162e-04   6.75278e-05 DIIS
   @DF-RHF iter   5:  -227.89142798466298   -3.86225e-05   1.70806e-05 DIIS
   @DF-RHF iter   6:  -227.89142985604622   -1.87138e-06   2.43498e-06 DIIS
   @DF-RHF iter   7:  -227.89142990289702   -4.68508e-08   3.55228e-07 DIIS
   @DF-RHF iter   8:  -227.89142990371280   -8.15788e-10   1.19492e-07 DIIS

  ==> Post-Iterations <==

    Orbital Energies (a.u.)
    -----------------------

    Doubly Occupied:                                                      

       1A    -11.030134     2A    -11.029938     3A    -11.029860  
       4A    -11.029648     5A    -11.029056     6A    -11.029034  
       7A     -1.091127     8A     -0.956378     9A     -0.954368  
      10A     -0.768049    11A     -0.766324    12A     -0.662238  
      13A     -0.594080    14A     -0.554748    15A     -0.535526  
      16A     -0.532069    17A     -0.457157    18A     -0.437859  
      19A     -0.428110    20A     -0.281635    21A     -0.279581  

    Virtual:                                                              

      22A      0.250638    23A      0.255804    24A      0.258821  
      25A      0.266552    26A      0.270716    27A      0.375755  
      28A      0.379935    29A      0.383663    30A      0.385397  
      31A      0.387307    32A      0.389701    33A      0.503717  
      34A      0.566007    35A      0.580933    36A      0.584396  
      37A      0.587119    38A      0.589925    39A      0.593203  
      40A      0.594822    41A      0.639400    42A      0.655307  
      43A      0.715185    44A      0.724489    45A      0.726412  
      46A      0.733988    47A      0.738424    48A      0.741910  
      49A      0.773344    50A      0.786907    51A      0.800471  
      52A      0.880667    53A      0.885385    54A      0.893605  
      55A      0.899470    56A      0.936700    57A      0.942421  
      58A      0.950016    59A      0.957482    60A      0.968221  
      61A      0.973894    62A      1.083380    63A      1.086933  
      64A      1.088885    65A      1.093258    66A      1.147144  
      67A      1.149002    68A      1.149941    69A      1.161512  
      70A      1.162193    71A      1.166504    72A      1.171255  
      73A      1.306248    74A      1.308422    75A      1.310043  
      76A      1.320707    77A      1.322024    78A      1.323423  
      79A      1.326043    80A      1.326483    81A      1.327392  
      82A      1.504002    83A      1.513674    84A      1.518273  
      85A      1.767122    86A      1.782860    87A      1.787775  
      88A      1.820979    89A      1.821523    90A      1.822372  
      91A      1.826751    92A      1.828353    93A      1.831321  
      94A      1.935324    95A      1.937940    96A      1.939420  
      97A      1.950466    98A      1.956597    99A      1.962099  
     100A      2.101950   101A      2.104229   102A      2.114413  
     103A      2.120634   104A      2.126449   105A      2.135092  
     106A      2.165995   107A      2.168719   108A      2.171203  
     109A      2.778520   110A      2.781167   111A      2.784441  
     112A      2.787875   113A      2.790104   114A      2.791677  
     115A      2.806502   116A      2.807109   117A      2.809724  
     118A      2.824568   119A      2.825731   120A      2.827040  
     121A      3.235498   122A      3.241273   123A      3.242641  
     124A      3.365924   125A      3.366954   126A      3.368228  
     127A     17.072924   128A     17.076266   129A     17.082552  
     130A     17.328109   131A     17.330137   132A     17.331204  
     133A     17.331932   134A     17.333215   135A     17.335955  
     136A     17.793200   137A     17.793932   138A     17.795086  
     139A     17.798579   140A     17.799388   141A     17.800796  
     142A     18.061206   143A     18.064058   144A     18.065283  

    Final Occupation by Irrep:
              A 
    DOCC [    21 ]

  Energy converged.

  @DF-RHF Final Energy:  -227.89142990371280

   => Energetics <=

    Nuclear Repulsion Energy =            203.5820056373219131
    One-Electron Energy =                -711.9930416287561457
    Two-Electron Energy =                 280.5196060877213995
    DFT Exchange-Correlation Energy =       0.0000000000000000
    Empirical Dispersion Energy =           0.0000000000000000
    PCM Polarization Energy =               0.0000000000000000
    EFP Energy =                            0.0000000000000000
    Total Energy =                       -227.8914299037128330



Properties will be evaluated at   0.000000,   0.000000,   0.000000 Bohr

Properties computed using the SCF density matrix

  Nuclear Dipole Moment: (a.u.)
     X:    35.6026      Y:    33.4200      Z:   273.9792

  Electronic Dipole Moment: (a.u.)
     X:   -35.5973      Y:   -33.4121      Z:  -273.9690

  Dipole Moment: (a.u.)
     X:     0.0052      Y:     0.0079      Z:     0.0102     Total:     0.0140

  Dipole Moment: (Debye)
     X:     0.0133      Y:     0.0202      Z:     0.0260     Total:     0.0355


*** tstop() called on Magnesium at Tue Mar 20 22:52:54 2018
Module time:
	user time   =      78.36 seconds =       1.31 minutes
	system time =       2.13 seconds =       0.04 minutes
	total time  =         32 seconds =       0.53 minutes
Total time:
	user time   =      78.36 seconds =       1.31 minutes
	system time =       2.13 seconds =       0.04 minutes
	total time  =         32 seconds =       0.53 minutes

       N-Body: Complex Energy (fragments = (3,), basis = (1, 2, 3, 4):  -227.89142990371280)

       N-Body: Computing complex (2/4) with fragments (2,) in the basis of fragments (1, 2, 3, 4).


*** tstart() called on Magnesium
*** at Tue Mar 20 22:52:54 2018

   => Loading Basis Set <=

    Name: STO-3G
    Role: ORBITAL
    Keyword: BASIS
    atoms 1-6, 13-18, 25-30, 37-42  entry H          line    18 file /home/carlosborca/psi4conda/share/psi4/basis/sto-3g.gbs 
    atoms 7-12, 19-24, 31-36, 43-48 entry C          line    60 file /home/carlosborca/psi4conda/share/psi4/basis/sto-3g.gbs 

    There are an even number of electrons - assuming singlet.
    Specify the multiplicity in the molecule input block.


         ---------------------------------------------------------
                                   SCF
            by Justin Turney, Rob Parrish, and Andy Simmonett
                              RHF Reference
                        4 Threads,    476 MiB Core
         ---------------------------------------------------------

  ==> Geometry <==

    Molecular point group: c1
    Full point group: C1

    Geometry (in Bohr), charge = 0, multiplicity = 1:

       Center              X                  Y                   Z               Mass       
    ------------   -----------------  -----------------  -----------------  -----------------
           H(Gh)      2.762292060000    -5.112510430000     3.125888590000     1.007825032070
           H(Gh)     -1.066931820000   -11.097280660000    -2.948295910000     1.007825032070
           H(Gh)     -2.584935590000    -6.714620250000    -2.795154390000     1.007825032070
           H(Gh)      4.280295830000    -9.495170840000     2.972747080000     1.007825032070
           H(Gh)     -0.613066840000    -3.651030260000     0.247085470000     1.007825032070
           H(Gh)      2.308427080000   -12.558760830000    -0.069492790000     1.007825032070
           C(Gh)      1.922990980000    -6.399538650000     1.793943470000    12.000000000000
           C(Gh)     -0.227630740000    -9.810252440000    -1.616350790000    12.000000000000
           C(Gh)     -1.075310860000    -7.309181000000    -1.532702060000    12.000000000000
           C(Gh)      2.770671100000    -8.900610090000     1.710294750000    12.000000000000
           C(Gh)      0.000000000000    -5.625185570000     0.177592680000    12.000000000000
           C(Gh)      1.695360240000   -10.584605510000     0.000000000000    12.000000000000
           H         -8.049469880000     3.788099650000     3.125888590000     1.007825032070
           H         -4.220246000000    -2.196670570000    -2.948295910000     1.007825032070
           H         -2.702242230000     2.185989840000    -2.795154390000     1.007825032070
           H         -9.567473650000    -0.594560750000     2.972747080000     1.007825032070
           H         -4.674110980000     5.249579830000     0.247085470000     1.007825032070
           H         -7.595604900000    -3.658150750000    -0.069492790000     1.007825032070
           C         -7.210168800000     2.501071430000     1.793943470000    12.000000000000
           C         -5.059547080000    -0.909642350000    -1.616350790000    12.000000000000
           C         -4.211866960000     1.591429080000    -1.532702060000    12.000000000000
           C         -8.057848920000     0.000000000000     1.710294750000    12.000000000000
           C         -5.287177820000     3.275424510000     0.177592680000    12.000000000000
           C         -6.982538060000    -1.683995430000     0.000000000000    12.000000000000
           H(Gh)      2.762292060000    -2.196670570000     9.560406080000     1.007825032070
           H(Gh)     -1.066931820000     3.788099650000     3.486221570000     1.007825032070
           H(Gh)     -2.584935590000    -0.594560750000     3.639363090000     1.007825032070
           H(Gh)      4.280295830000     2.185989840000     9.407264560000     1.007825032070
           H(Gh)     -0.613066840000    -3.658150750000     6.681602950000     1.007825032070
           H(Gh)      2.308427080000     5.249579830000     6.365024690000     1.007825032070
           C(Gh)      1.922990980000    -0.909642350000     8.228460960000    12.000000000000
           C(Gh)     -0.227630740000     2.501071430000     4.818166690000    12.000000000000
           C(Gh)     -1.075310860000     0.000000000000     4.901815420000    12.000000000000
           C(Gh)      2.770671100000     1.591429080000     8.144812230000    12.000000000000
           C(Gh)      0.000000000000    -1.683995430000     6.612110160000    12.000000000000
           C(Gh)      1.695360240000     3.275424510000     6.434517480000    12.000000000000
           H(Gh)     -4.674110980000   -12.558760830000     6.681602950000     1.007825032070
           H(Gh)     -2.702242230000    -9.495170840000     3.639363090000     1.007825032070
           H(Gh)     -8.049469880000   -11.097280660000     9.560406080000     1.007825032070
           H(Gh)     -4.220246000000    -5.112510430000     3.486221570000     1.007825032070
           H(Gh)     -9.567473650000    -6.714620250000     9.407264560000     1.007825032070
           H(Gh)     -7.595604900000    -3.651030260000     6.365024690000     1.007825032070
           C(Gh)     -5.287177820000   -10.584605510000     6.612110160000    12.000000000000
           C(Gh)     -4.211866960000    -8.900610090000     4.901815420000    12.000000000000
           C(Gh)     -7.210168800000    -9.810252440000     8.228460960000    12.000000000000
           C(Gh)     -5.059547080000    -6.399538650000     4.818166690000    12.000000000000
           C(Gh)     -8.057848920000    -7.309181000000     8.144812230000    12.000000000000
           C(Gh)     -6.982538060000    -5.625185570000     6.434517480000    12.000000000000

  Running in c1 symmetry.

  Rotational constants: A =      0.00604  B =      0.00305  C =      0.00283 [cm^-1]
  Rotational constants: A =    181.04832  B =     91.30397  C =     84.77358 [MHz]
  Nuclear repulsion =  203.582005708156913

  Charge       = 0
  Multiplicity = 1
  Electrons    = 42
  Nalpha       = 21
  Nbeta        = 21

  ==> Algorithm <==

  SCF Algorithm Type is DF.
  DIIS enabled.
  MOM disabled.
  Fractional occupation disabled.
  Guess Type is SAD.
  Energy threshold   = 1.00e-08
  Density threshold  = 1.00e-06
  Integral threshold = 0.00e+00

  ==> Primary Basis <==

  Basis Set: STO-3G
    Blend: STO-3G
    Number of shells: 96
    Number of basis function: 144
    Number of Cartesian functions: 144
    Spherical Harmonics?: true
    Max angular momentum: 1

   => Loading Basis Set <=

    Name: (STO-3G AUX)
    Role: JKFIT
    Keyword: DF_BASIS_SCF
    atoms 1-6, 13-18, 25-30, 37-42  entry H          line    22 file /home/carlosborca/psi4conda/share/psi4/basis/def2-svp-jkfit.gbs 
    atoms 7-12, 19-24, 31-36, 43-48 entry C          line   202 file /home/carlosborca/psi4conda/share/psi4/basis/def2-svp-jkfit.gbs 

  ==> Pre-Iterations <==

   -------------------------------------------------------
    Irrep   Nso     Nmo     Nalpha   Nbeta   Ndocc  Nsocc
   -------------------------------------------------------
     A        144     144       0       0       0       0
   -------------------------------------------------------
    Total     144     144      21      21      21       0
   -------------------------------------------------------

  ==> Integral Setup <==

  ==> DFJK: Density-Fitted J/K Matrices <==

    J tasked:                  Yes
    K tasked:                  Yes
    wK tasked:                  No
    OpenMP threads:              4
    Integrals threads:           4
    Memory (MB):               357
    Algorithm:                Core
    Integral Cache:           NONE
    Schwarz Cutoff:          1E-12
    Fitting Condition:       1E-12

   => Auxiliary Basis Set <=

  Basis Set: (STO-3G AUX)
    Blend: DEF2-SVP-JKFIT
    Number of shells: 744
    Number of basis function: 2232
    Number of Cartesian functions: 2616
    Spherical Harmonics?: true
    Max angular momentum: 4

  Minimum eigenvalue in the overlap matrix is 1.7071019530E-01.
  Using Symmetric Orthogonalization.

  SCF Guess: Superposition of Atomic Densities via on-the-fly atomic UHF.

  ==> Iterations <==

                           Total Energy        Delta E     RMS |[F,P]|

   @DF-RHF iter   0:  -227.75554078654193   -2.27756e+02   4.87260e-02 
   @DF-RHF iter   1:  -227.75952513142323   -3.98434e-03   5.33272e-03 
   @DF-RHF iter   2:  -227.88309590213572   -1.23571e-01   1.42210e-03 DIIS
   @DF-RHF iter   3:  -227.89191820919763   -8.82231e-03   3.66854e-04 DIIS
   @DF-RHF iter   4:  -227.89235824913575   -4.40040e-04   3.92977e-05 DIIS
   @DF-RHF iter   5:  -227.89236610145207   -7.85232e-06   1.15963e-05 DIIS
   @DF-RHF iter   6:  -227.89236737512439   -1.27367e-06   3.12486e-06 DIIS
   @DF-RHF iter   7:  -227.89236747513868   -1.00014e-07   4.08233e-07 DIIS
   @DF-RHF iter   8:  -227.89236747609667   -9.57982e-10   8.30883e-08 DIIS

  ==> Post-Iterations <==

    Orbital Energies (a.u.)
    -----------------------

    Doubly Occupied:                                                      

       1A    -11.030551     2A    -11.030430     3A    -11.030215  
       4A    -11.030093     5A    -11.029506     6A    -11.029487  
       7A     -1.091420     8A     -0.956660     9A     -0.954648  
      10A     -0.768321    11A     -0.766599    12A     -0.662517  
      13A     -0.594324    14A     -0.555070    15A     -0.535811  
      16A     -0.532353    17A     -0.457551    18A     -0.438151  
      19A     -0.428397    20A     -0.281904    21A     -0.279773  

    Virtual:                                                              

      22A      0.252542    23A      0.259156    24A      0.259809  
      25A      0.266478    26A      0.270408    27A      0.377204  
      28A      0.383518    29A      0.385318    30A      0.387595  
      31A      0.388900    32A      0.391912    33A      0.503224  
      34A      0.572253    35A      0.580587    36A      0.585322  
      37A      0.587977    38A      0.591104    39A      0.595205  
      40A      0.597787    41A      0.638318    42A      0.654723  
      43A      0.717465    44A      0.726310    45A      0.727180  
      46A      0.732706    47A      0.738044    48A      0.744352  
      49A      0.777718    50A      0.788446    51A      0.800593  
      52A      0.881361    53A      0.884431    54A      0.893531  
      55A      0.900423    56A      0.933487    57A      0.950797  
      58A      0.954220    59A      0.960522    60A      0.964248  
      61A      0.977111    62A      1.083857    63A      1.085673  
      64A      1.088194    65A      1.088806    66A      1.144995  
      67A      1.149952    68A      1.159071    69A      1.160467  
      70A      1.166405    71A      1.167228    72A      1.171861  
      73A      1.308586    74A      1.309346    75A      1.312555  
      76A      1.320984    77A      1.324316    78A      1.325268  
      79A      1.326196    80A      1.327050    81A      1.329480  
      82A      1.506937    83A      1.514916    84A      1.520661  
      85A      1.769681    86A      1.785902    87A      1.790254  
      88A      1.821370    89A      1.823984    90A      1.824984  
      91A      1.828603    92A      1.829907    93A      1.831727  
      94A      1.937827    95A      1.939260    96A      1.941971  
      97A      1.953318    98A      1.957376    99A      1.964700  
     100A      2.103566   101A      2.111581   102A      2.115387  
     103A      2.123043   104A      2.124619   105A      2.138862  
     106A      2.168258   107A      2.170518   108A      2.172252  
     109A      2.780631   110A      2.784387   111A      2.786395  
     112A      2.789787   113A      2.790558   114A      2.794382  
     115A      2.808299   116A      2.808595   117A      2.812230  
     118A      2.826958   119A      2.827050   120A      2.829094  
     121A      3.238190   122A      3.241863   123A      3.245464  
     124A      3.367994   125A      3.368238   126A      3.370526  
     127A     17.073750   128A     17.079512   129A     17.083523  
     130A     17.330898   131A     17.331139   132A     17.332584  
     133A     17.333785   134A     17.335704   135A     17.337960  
     136A     17.795422   137A     17.795892   138A     17.796406  
     139A     17.800451   140A     17.801665   141A     17.802658  
     142A     18.063258   143A     18.065323   144A     18.067692  

    Final Occupation by Irrep:
              A 
    DOCC [    21 ]

  Energy converged.

  @DF-RHF Final Energy:  -227.89236747609667

   => Energetics <=

    Nuclear Repulsion Energy =            203.5820057081569132
    One-Electron Energy =                -711.9811801190012375
    Two-Electron Energy =                 280.5068069347477149
    DFT Exchange-Correlation Energy =       0.0000000000000000
    Empirical Dispersion Energy =           0.0000000000000000
    PCM Polarization Energy =               0.0000000000000000
    EFP Energy =                            0.0000000000000000
    Total Energy =                       -227.8923674760966378



Properties will be evaluated at   0.000000,   0.000000,   0.000000 Bohr

Properties computed using the SCF density matrix

  Nuclear Dipole Moment: (a.u.)
     X:  -257.6640      Y:    33.4200      Z:     3.7294

  Electronic Dipole Moment: (a.u.)
     X:   257.6470      Y:   -33.4097      Z:    -3.7437

  Dipole Moment: (a.u.)
     X:    -0.0170      Y:     0.0104      Z:    -0.0143     Total:     0.0245

  Dipole Moment: (Debye)
     X:    -0.0432      Y:     0.0263      Z:    -0.0363     Total:     0.0623


*** tstop() called on Magnesium at Tue Mar 20 22:53:26 2018
Module time:
	user time   =      74.16 seconds =       1.24 minutes
	system time =       2.06 seconds =       0.03 minutes
	total time  =         32 seconds =       0.53 minutes
Total time:
	user time   =     152.53 seconds =       2.54 minutes
	system time =       4.19 seconds =       0.07 minutes
	total time  =         64 seconds =       1.07 minutes

       N-Body: Complex Energy (fragments = (2,), basis = (1, 2, 3, 4):  -227.89236747609667)

       N-Body: Computing complex (3/4) with fragments (4,) in the basis of fragments (1, 2, 3, 4).


*** tstart() called on Magnesium
*** at Tue Mar 20 22:53:26 2018

   => Loading Basis Set <=

    Name: STO-3G
    Role: ORBITAL
    Keyword: BASIS
    atoms 1-6, 13-18, 25-30, 37-42  entry H          line    18 file /home/carlosborca/psi4conda/share/psi4/basis/sto-3g.gbs 
    atoms 7-12, 19-24, 31-36, 43-48 entry C          line    60 file /home/carlosborca/psi4conda/share/psi4/basis/sto-3g.gbs 

    There are an even number of electrons - assuming singlet.
    Specify the multiplicity in the molecule input block.


         ---------------------------------------------------------
                                   SCF
            by Justin Turney, Rob Parrish, and Andy Simmonett
                              RHF Reference
                        4 Threads,    476 MiB Core
         ---------------------------------------------------------

  ==> Geometry <==

    Molecular point group: c1
    Full point group: C1

    Geometry (in Bohr), charge = 0, multiplicity = 1:

       Center              X                  Y                   Z               Mass       
    ------------   -----------------  -----------------  -----------------  -----------------
           H(Gh)      2.762292060000    -5.112510430000     3.125888590000     1.007825032070
           H(Gh)     -1.066931820000   -11.097280660000    -2.948295910000     1.007825032070
           H(Gh)     -2.584935590000    -6.714620250000    -2.795154390000     1.007825032070
           H(Gh)      4.280295830000    -9.495170840000     2.972747080000     1.007825032070
           H(Gh)     -0.613066840000    -3.651030260000     0.247085470000     1.007825032070
           H(Gh)      2.308427080000   -12.558760830000    -0.069492790000     1.007825032070
           C(Gh)      1.922990980000    -6.399538650000     1.793943470000    12.000000000000
           C(Gh)     -0.227630740000    -9.810252440000    -1.616350790000    12.000000000000
           C(Gh)     -1.075310860000    -7.309181000000    -1.532702060000    12.000000000000
           C(Gh)      2.770671100000    -8.900610090000     1.710294750000    12.000000000000
           C(Gh)      0.000000000000    -5.625185570000     0.177592680000    12.000000000000
           C(Gh)      1.695360240000   -10.584605510000     0.000000000000    12.000000000000
           H(Gh)     -8.049469880000     3.788099650000     3.125888590000     1.007825032070
           H(Gh)     -4.220246000000    -2.196670570000    -2.948295910000     1.007825032070
           H(Gh)     -2.702242230000     2.185989840000    -2.795154390000     1.007825032070
           H(Gh)     -9.567473650000    -0.594560750000     2.972747080000     1.007825032070
           H(Gh)     -4.674110980000     5.249579830000     0.247085470000     1.007825032070
           H(Gh)     -7.595604900000    -3.658150750000    -0.069492790000     1.007825032070
           C(Gh)     -7.210168800000     2.501071430000     1.793943470000    12.000000000000
           C(Gh)     -5.059547080000    -0.909642350000    -1.616350790000    12.000000000000
           C(Gh)     -4.211866960000     1.591429080000    -1.532702060000    12.000000000000
           C(Gh)     -8.057848920000     0.000000000000     1.710294750000    12.000000000000
           C(Gh)     -5.287177820000     3.275424510000     0.177592680000    12.000000000000
           C(Gh)     -6.982538060000    -1.683995430000     0.000000000000    12.000000000000
           H(Gh)      2.762292060000    -2.196670570000     9.560406080000     1.007825032070
           H(Gh)     -1.066931820000     3.788099650000     3.486221570000     1.007825032070
           H(Gh)     -2.584935590000    -0.594560750000     3.639363090000     1.007825032070
           H(Gh)      4.280295830000     2.185989840000     9.407264560000     1.007825032070
           H(Gh)     -0.613066840000    -3.658150750000     6.681602950000     1.007825032070
           H(Gh)      2.308427080000     5.249579830000     6.365024690000     1.007825032070
           C(Gh)      1.922990980000    -0.909642350000     8.228460960000    12.000000000000
           C(Gh)     -0.227630740000     2.501071430000     4.818166690000    12.000000000000
           C(Gh)     -1.075310860000     0.000000000000     4.901815420000    12.000000000000
           C(Gh)      2.770671100000     1.591429080000     8.144812230000    12.000000000000
           C(Gh)      0.000000000000    -1.683995430000     6.612110160000    12.000000000000
           C(Gh)      1.695360240000     3.275424510000     6.434517480000    12.000000000000
           H         -4.674110980000   -12.558760830000     6.681602950000     1.007825032070
           H         -2.702242230000    -9.495170840000     3.639363090000     1.007825032070
           H         -8.049469880000   -11.097280660000     9.560406080000     1.007825032070
           H         -4.220246000000    -5.112510430000     3.486221570000     1.007825032070
           H         -9.567473650000    -6.714620250000     9.407264560000     1.007825032070
           H         -7.595604900000    -3.651030260000     6.365024690000     1.007825032070
           C         -5.287177820000   -10.584605510000     6.612110160000    12.000000000000
           C         -4.211866960000    -8.900610090000     4.901815420000    12.000000000000
           C         -7.210168800000    -9.810252440000     8.228460960000    12.000000000000
           C         -5.059547080000    -6.399538650000     4.818166690000    12.000000000000
           C         -8.057848920000    -7.309181000000     8.144812230000    12.000000000000
           C         -6.982538060000    -5.625185570000     6.434517480000    12.000000000000

  Running in c1 symmetry.

  Rotational constants: A =      0.00604  B =      0.00305  C =      0.00283 [cm^-1]
  Rotational constants: A =    181.04832  B =     91.30397  C =     84.77358 [MHz]
  Nuclear repulsion =  203.582005564736392

  Charge       = 0
  Multiplicity = 1
  Electrons    = 42
  Nalpha       = 21
  Nbeta        = 21

  ==> Algorithm <==

  SCF Algorithm Type is DF.
  DIIS enabled.
  MOM disabled.
  Fractional occupation disabled.
  Guess Type is SAD.
  Energy threshold   = 1.00e-08
  Density threshold  = 1.00e-06
  Integral threshold = 0.00e+00

  ==> Primary Basis <==

  Basis Set: STO-3G
    Blend: STO-3G
    Number of shells: 96
    Number of basis function: 144
    Number of Cartesian functions: 144
    Spherical Harmonics?: true
    Max angular momentum: 1

   => Loading Basis Set <=

    Name: (STO-3G AUX)
    Role: JKFIT
    Keyword: DF_BASIS_SCF
    atoms 1-6, 13-18, 25-30, 37-42  entry H          line    22 file /home/carlosborca/psi4conda/share/psi4/basis/def2-svp-jkfit.gbs 
    atoms 7-12, 19-24, 31-36, 43-48 entry C          line   202 file /home/carlosborca/psi4conda/share/psi4/basis/def2-svp-jkfit.gbs 

  ==> Pre-Iterations <==

   -------------------------------------------------------
    Irrep   Nso     Nmo     Nalpha   Nbeta   Ndocc  Nsocc
   -------------------------------------------------------
     A        144     144       0       0       0       0
   -------------------------------------------------------
    Total     144     144      21      21      21       0
   -------------------------------------------------------

  ==> Integral Setup <==

  ==> DFJK: Density-Fitted J/K Matrices <==

    J tasked:                  Yes
    K tasked:                  Yes
    wK tasked:                  No
    OpenMP threads:              4
    Integrals threads:           4
    Memory (MB):               357
    Algorithm:                Core
    Integral Cache:           NONE
    Schwarz Cutoff:          1E-12
    Fitting Condition:       1E-12

   => Auxiliary Basis Set <=

  Basis Set: (STO-3G AUX)
    Blend: DEF2-SVP-JKFIT
    Number of shells: 744
    Number of basis function: 2232
    Number of Cartesian functions: 2616
    Spherical Harmonics?: true
    Max angular momentum: 4

  Minimum eigenvalue in the overlap matrix is 1.7071019530E-01.
  Using Symmetric Orthogonalization.

  SCF Guess: Superposition of Atomic Densities via on-the-fly atomic UHF.

  ==> Iterations <==

                           Total Energy        Delta E     RMS |[F,P]|

   @DF-RHF iter   0:  -228.02980486763281   -2.28030e+02   4.94282e-02 
   @DF-RHF iter   1:  -227.72645313960768    3.03352e-01   5.19985e-03 
   @DF-RHF iter   2:  -227.86858802342005   -1.42135e-01   1.74279e-03 DIIS
   @DF-RHF iter   3:  -227.88911508247045   -2.05271e-02   5.69649e-04 DIIS
   @DF-RHF iter   4:  -227.89108937452988   -1.97429e-03   1.86291e-04 DIIS
   @DF-RHF iter   5:  -227.89142695561861   -3.37581e-04   1.46065e-05 DIIS
   @DF-RHF iter   6:  -227.89143077912493   -3.82351e-06   2.65768e-06 DIIS
   @DF-RHF iter   7:  -227.89143082727821   -4.81533e-08   5.96933e-07 DIIS
   @DF-RHF iter   8:  -227.89143082939205   -2.11384e-09   1.55174e-07 DIIS

  ==> Post-Iterations <==

    Orbital Energies (a.u.)
    -----------------------

    Doubly Occupied:                                                      

       1A    -11.030089     2A    -11.029998     3A    -11.029765  
       4A    -11.029645     5A    -11.029191     6A    -11.029034  
       7A     -1.091135     8A     -0.956388     9A     -0.954374  
      10A     -0.768056    11A     -0.766331    12A     -0.662245  
      13A     -0.594087    14A     -0.554753    15A     -0.535535  
      16A     -0.532073    17A     -0.457164    18A     -0.437859  
      19A     -0.428129    20A     -0.281613    21A     -0.279619  

    Virtual:                                                              

      22A      0.250497    23A      0.255612    24A      0.258672  
      25A      0.266648    26A      0.270772    27A      0.376737  
      28A      0.380242    29A      0.380827    30A      0.385153  
      31A      0.388551    32A      0.389551    33A      0.503751  
      34A      0.569185    35A      0.579602    36A      0.582560  
      37A      0.586203    38A      0.588537    39A      0.592177  
      40A      0.597353    41A      0.638368    42A      0.655544  
      43A      0.713171    44A      0.724323    45A      0.727016  
      46A      0.733316    47A      0.738841    48A      0.740987  
      49A      0.778023    50A      0.787255    51A      0.798190  
      52A      0.881607    53A      0.884430    54A      0.893459  
      55A      0.899643    56A      0.937500    57A      0.943886  
      58A      0.948346    59A      0.958984    60A      0.965591  
      61A      0.975096    62A      1.083678    63A      1.086841  
      64A      1.088911    65A      1.092774    66A      1.148522  
      67A      1.149116    68A      1.152434    69A      1.155882  
      70A      1.163204    71A      1.167322    72A      1.170378  
      73A      1.307079    74A      1.308618    75A      1.309312  
      76A      1.320584    77A      1.321428    78A      1.323330  
      79A      1.325639    80A      1.326535    81A      1.327618  
      82A      1.504073    83A      1.513702    84A      1.517428  
      85A      1.766118    86A      1.783829    87A      1.788038  
      88A      1.819962    89A      1.821762    90A      1.822644  
      91A      1.826091    92A      1.829271    93A      1.830558  
      94A      1.935294    95A      1.937930    96A      1.939523  
      97A      1.949428    98A      1.958115    99A      1.961340  
     100A      2.101119   101A      2.107867   102A      2.111744  
     103A      2.118857   104A      2.127962   105A      2.134884  
     106A      2.165636   107A      2.169238   108A      2.170241  
     109A      2.778059   110A      2.782403   111A      2.783886  
     112A      2.786351   113A      2.790103   114A      2.791832  
     115A      2.806300   116A      2.808133   117A      2.808600  
     118A      2.824701   119A      2.825527   120A      2.827026  
     121A      3.235475   122A      3.240862   123A      3.242546  
     124A      3.365977   125A      3.366794   126A      3.368049  
     127A     17.072961   128A     17.076175   129A     17.082312  
     130A     17.328618   131A     17.329845   132A     17.330445  
     133A     17.331951   134A     17.333310   135A     17.335799  
     136A     17.792909   137A     17.794452   138A     17.795086  
     139A     17.797630   140A     17.799268   141A     17.801035  
     142A     18.061100   143A     18.064164   144A     18.064962  

    Final Occupation by Irrep:
              A 
    DOCC [    21 ]

  Energy converged.

  @DF-RHF Final Energy:  -227.89143082939205

   => Energetics <=

    Nuclear Repulsion Energy =            203.5820055647363915
    One-Electron Energy =                -711.9926996901771190
    Two-Electron Energy =                 280.5192632960486776
    DFT Exchange-Correlation Energy =       0.0000000000000000
    Empirical Dispersion Energy =           0.0000000000000000
    PCM Polarization Energy =               0.0000000000000000
    EFP Energy =                            0.0000000000000000
    Total Energy =                       -227.8914308293920499



Properties will be evaluated at   0.000000,   0.000000,   0.000000 Bohr

Properties computed using the SCF density matrix

  Nuclear Dipole Moment: (a.u.)
     X:  -257.6640      Y:  -340.4056      Z:   273.9792

  Electronic Dipole Moment: (a.u.)
     X:   257.6559      Y:   340.3964      Z:  -273.9719

  Dipole Moment: (a.u.)
     X:    -0.0081      Y:    -0.0092      Z:     0.0073     Total:     0.0143

  Dipole Moment: (Debye)
     X:    -0.0206      Y:    -0.0234      Z:     0.0186     Total:     0.0363


*** tstop() called on Magnesium at Tue Mar 20 22:53:57 2018
Module time:
	user time   =      74.58 seconds =       1.24 minutes
	system time =       2.04 seconds =       0.03 minutes
	total time  =         31 seconds =       0.52 minutes
Total time:
	user time   =     227.12 seconds =       3.79 minutes
	system time =       6.23 seconds =       0.10 minutes
	total time  =         95 seconds =       1.58 minutes

       N-Body: Complex Energy (fragments = (4,), basis = (1, 2, 3, 4):  -227.89143082939205)

       N-Body: Computing complex (4/4) with fragments (1,) in the basis of fragments (1, 2, 3, 4).


*** tstart() called on Magnesium
*** at Tue Mar 20 22:53:57 2018

   => Loading Basis Set <=

    Name: STO-3G
    Role: ORBITAL
    Keyword: BASIS
    atoms 1-6, 13-18, 25-30, 37-42  entry H          line    18 file /home/carlosborca/psi4conda/share/psi4/basis/sto-3g.gbs 
    atoms 7-12, 19-24, 31-36, 43-48 entry C          line    60 file /home/carlosborca/psi4conda/share/psi4/basis/sto-3g.gbs 

    There are an even number of electrons - assuming singlet.
    Specify the multiplicity in the molecule input block.


         ---------------------------------------------------------
                                   SCF
            by Justin Turney, Rob Parrish, and Andy Simmonett
                              RHF Reference
                        4 Threads,    476 MiB Core
         ---------------------------------------------------------

  ==> Geometry <==

    Molecular point group: c1
    Full point group: C1

    Geometry (in Bohr), charge = 0, multiplicity = 1:

       Center              X                  Y                   Z               Mass       
    ------------   -----------------  -----------------  -----------------  -----------------
           H          2.762292060000    -5.112510430000     3.125888590000     1.007825032070
           H         -1.066931820000   -11.097280660000    -2.948295910000     1.007825032070
           H         -2.584935590000    -6.714620250000    -2.795154390000     1.007825032070
           H          4.280295830000    -9.495170840000     2.972747080000     1.007825032070
           H         -0.613066840000    -3.651030260000     0.247085470000     1.007825032070
           H          2.308427080000   -12.558760830000    -0.069492790000     1.007825032070
           C          1.922990980000    -6.399538650000     1.793943470000    12.000000000000
           C         -0.227630740000    -9.810252440000    -1.616350790000    12.000000000000
           C         -1.075310860000    -7.309181000000    -1.532702060000    12.000000000000
           C          2.770671100000    -8.900610090000     1.710294750000    12.000000000000
           C          0.000000000000    -5.625185570000     0.177592680000    12.000000000000
           C          1.695360240000   -10.584605510000     0.000000000000    12.000000000000
           H(Gh)     -8.049469880000     3.788099650000     3.125888590000     1.007825032070
           H(Gh)     -4.220246000000    -2.196670570000    -2.948295910000     1.007825032070
           H(Gh)     -2.702242230000     2.185989840000    -2.795154390000     1.007825032070
           H(Gh)     -9.567473650000    -0.594560750000     2.972747080000     1.007825032070
           H(Gh)     -4.674110980000     5.249579830000     0.247085470000     1.007825032070
           H(Gh)     -7.595604900000    -3.658150750000    -0.069492790000     1.007825032070
           C(Gh)     -7.210168800000     2.501071430000     1.793943470000    12.000000000000
           C(Gh)     -5.059547080000    -0.909642350000    -1.616350790000    12.000000000000
           C(Gh)     -4.211866960000     1.591429080000    -1.532702060000    12.000000000000
           C(Gh)     -8.057848920000     0.000000000000     1.710294750000    12.000000000000
           C(Gh)     -5.287177820000     3.275424510000     0.177592680000    12.000000000000
           C(Gh)     -6.982538060000    -1.683995430000     0.000000000000    12.000000000000
           H(Gh)      2.762292060000    -2.196670570000     9.560406080000     1.007825032070
           H(Gh)     -1.066931820000     3.788099650000     3.486221570000     1.007825032070
           H(Gh)     -2.584935590000    -0.594560750000     3.639363090000     1.007825032070
           H(Gh)      4.280295830000     2.185989840000     9.407264560000     1.007825032070
           H(Gh)     -0.613066840000    -3.658150750000     6.681602950000     1.007825032070
           H(Gh)      2.308427080000     5.249579830000     6.365024690000     1.007825032070
           C(Gh)      1.922990980000    -0.909642350000     8.228460960000    12.000000000000
           C(Gh)     -0.227630740000     2.501071430000     4.818166690000    12.000000000000
           C(Gh)     -1.075310860000     0.000000000000     4.901815420000    12.000000000000
           C(Gh)      2.770671100000     1.591429080000     8.144812230000    12.000000000000
           C(Gh)      0.000000000000    -1.683995430000     6.612110160000    12.000000000000
           C(Gh)      1.695360240000     3.275424510000     6.434517480000    12.000000000000
           H(Gh)     -4.674110980000   -12.558760830000     6.681602950000     1.007825032070
           H(Gh)     -2.702242230000    -9.495170840000     3.639363090000     1.007825032070
           H(Gh)     -8.049469880000   -11.097280660000     9.560406080000     1.007825032070
           H(Gh)     -4.220246000000    -5.112510430000     3.486221570000     1.007825032070
           H(Gh)     -9.567473650000    -6.714620250000     9.407264560000     1.007825032070
           H(Gh)     -7.595604900000    -3.651030260000     6.365024690000     1.007825032070
           C(Gh)     -5.287177820000   -10.584605510000     6.612110160000    12.000000000000
           C(Gh)     -4.211866960000    -8.900610090000     4.901815420000    12.000000000000
           C(Gh)     -7.210168800000    -9.810252440000     8.228460960000    12.000000000000
           C(Gh)     -5.059547080000    -6.399538650000     4.818166690000    12.000000000000
           C(Gh)     -8.057848920000    -7.309181000000     8.144812230000    12.000000000000
           C(Gh)     -6.982538060000    -5.625185570000     6.434517480000    12.000000000000

  Running in c1 symmetry.

  Rotational constants: A =      0.00604  B =      0.00305  C =      0.00283 [cm^-1]
  Rotational constants: A =    181.04832  B =     91.30397  C =     84.77358 [MHz]
  Nuclear repulsion =  203.582005635571335

  Charge       = 0
  Multiplicity = 1
  Electrons    = 42
  Nalpha       = 21
  Nbeta        = 21

  ==> Algorithm <==

  SCF Algorithm Type is DF.
  DIIS enabled.
  MOM disabled.
  Fractional occupation disabled.
  Guess Type is SAD.
  Energy threshold   = 1.00e-08
  Density threshold  = 1.00e-06
  Integral threshold = 0.00e+00

  ==> Primary Basis <==

  Basis Set: STO-3G
    Blend: STO-3G
    Number of shells: 96
    Number of basis function: 144
    Number of Cartesian functions: 144
    Spherical Harmonics?: true
    Max angular momentum: 1

   => Loading Basis Set <=

    Name: (STO-3G AUX)
    Role: JKFIT
    Keyword: DF_BASIS_SCF
    atoms 1-6, 13-18, 25-30, 37-42  entry H          line    22 file /home/carlosborca/psi4conda/share/psi4/basis/def2-svp-jkfit.gbs 
    atoms 7-12, 19-24, 31-36, 43-48 entry C          line   202 file /home/carlosborca/psi4conda/share/psi4/basis/def2-svp-jkfit.gbs 

  ==> Pre-Iterations <==

   -------------------------------------------------------
    Irrep   Nso     Nmo     Nalpha   Nbeta   Ndocc  Nsocc
   -------------------------------------------------------
     A        144     144       0       0       0       0
   -------------------------------------------------------
    Total     144     144      21      21      21       0
   -------------------------------------------------------

  ==> Integral Setup <==

  ==> DFJK: Density-Fitted J/K Matrices <==

    J tasked:                  Yes
    K tasked:                  Yes
    wK tasked:                  No
    OpenMP threads:              4
    Integrals threads:           4
    Memory (MB):               357
    Algorithm:                Core
    Integral Cache:           NONE
    Schwarz Cutoff:          1E-12
    Fitting Condition:       1E-12

   => Auxiliary Basis Set <=

  Basis Set: (STO-3G AUX)
    Blend: DEF2-SVP-JKFIT
    Number of shells: 744
    Number of basis function: 2232
    Number of Cartesian functions: 2616
    Spherical Harmonics?: true
    Max angular momentum: 4

  Minimum eigenvalue in the overlap matrix is 1.7071019530E-01.
  Using Symmetric Orthogonalization.

  SCF Guess: Superposition of Atomic Densities via on-the-fly atomic UHF.

  ==> Iterations <==

                           Total Energy        Delta E     RMS |[F,P]|

   @DF-RHF iter   0:  -229.66965241436208   -2.29670e+02   5.25579e-02 
   @DF-RHF iter   1:  -227.84588165739387    1.82377e+00   2.70594e-03 
   @DF-RHF iter   2:  -227.88526898744533   -3.93873e-02   8.90691e-04 DIIS
   @DF-RHF iter   3:  -227.89141785176406   -6.14886e-03   2.26404e-04 DIIS
   @DF-RHF iter   4:  -227.89188343371953   -4.65582e-04   7.26667e-05 DIIS
   @DF-RHF iter   5:  -227.89192627632082   -4.28426e-05   1.77105e-05 DIIS
   @DF-RHF iter   6:  -227.89192837245056   -2.09613e-06   2.56018e-06 DIIS
   @DF-RHF iter   7:  -227.89192842309603   -5.06455e-08   4.90130e-07 DIIS
   @DF-RHF iter   8:  -227.89192842433013   -1.23410e-09   1.77028e-07 DIIS

  ==> Post-Iterations <==

    Orbital Energies (a.u.)
    -----------------------

    Doubly Occupied:                                                      

       1A    -11.030348     2A    -11.030160     3A    -11.030044  
       4A    -11.029853     5A    -11.029338     6A    -11.029174  
       7A     -1.091248     8A     -0.956498     9A     -0.954487  
      10A     -0.768169    11A     -0.766448    12A     -0.662361  
      13A     -0.594193    14A     -0.554895    15A     -0.535652  
      16A     -0.532196    17A     -0.457404    18A     -0.437995  
      19A     -0.428234    20A     -0.281720    21A     -0.279597  

    Virtual:                                                              

      22A      0.251111    23A      0.258216    24A      0.259663  
      25A      0.266510    26A      0.270612    27A      0.377528  
      28A      0.381482    29A      0.382300    30A      0.386008  
      31A      0.388531    32A      0.392079    33A      0.503627  
      34A      0.568689    35A      0.581551    36A      0.584925  
      37A      0.585347    38A      0.588878    39A      0.594271  
      40A      0.599059    41A      0.639349    42A      0.655275  
      43A      0.715998    44A      0.725520    45A      0.726406  
      46A      0.733911    47A      0.737321    48A      0.744971  
      49A      0.776976    50A      0.787587    51A      0.799780  
      52A      0.881360    53A      0.884926    54A      0.893139  
      55A      0.900399    56A      0.935494    57A      0.944729  
      58A      0.951857    59A      0.960506    60A      0.963609  
      61A      0.979708    62A      1.082510    63A      1.083708  
      64A      1.088562    65A      1.090881    66A      1.148191  
      67A      1.149222    68A      1.153251    69A      1.158731  
      70A      1.164046    71A      1.166690    72A      1.173750  
      73A      1.307494    74A      1.308352    75A      1.312329  
      76A      1.321015    77A      1.322733    78A      1.323827  
      79A      1.326021    80A      1.326665    81A      1.330469  
      82A      1.506102    83A      1.513585    84A      1.519804  
      85A      1.767347    86A      1.783863    87A      1.791505  
      88A      1.820860    89A      1.821321    90A      1.823612  
      91A      1.827284    92A      1.829205    93A      1.833821  
      94A      1.936768    95A      1.937994    96A      1.941076  
      97A      1.951780    98A      1.956245    99A      1.964319  
     100A      2.102881   101A      2.108493   102A      2.113484  
     103A      2.122481   104A      2.124651   105A      2.138283  
     106A      2.166724   107A      2.169465   108A      2.172587  
     109A      2.780919   110A      2.781555   111A      2.785311  
     112A      2.788241   113A      2.789665   114A      2.794580  
     115A      2.807181   116A      2.807782   117A      2.811558  
     118A      2.825643   119A      2.825799   120A      2.828922  
     121A      3.236842   122A      3.240494   123A      3.245384  
     124A      3.366768   125A      3.366840   126A      3.370473  
     127A     17.072480   128A     17.079197   129A     17.082397  
     130A     17.329560   131A     17.330812   132A     17.331751  
     133A     17.331930   134A     17.334587   135A     17.338017  
     136A     17.793626   137A     17.794815   138A     17.797234  
     139A     17.798547   140A     17.799676   141A     17.803177  
     142A     18.062119   143A     18.063939   144A     18.067528  

    Final Occupation by Irrep:
              A 
    DOCC [    21 ]

  Energy converged.

  @DF-RHF Final Energy:  -227.89192842433013

   => Energetics <=

    Nuclear Repulsion Energy =            203.5820056355713348
    One-Electron Energy =                -711.9878394346608275
    Two-Electron Energy =                 280.5139053747593607
    DFT Exchange-Correlation Energy =       0.0000000000000000
    Empirical Dispersion Energy =           0.0000000000000000
    PCM Polarization Energy =               0.0000000000000000
    EFP Energy =                            0.0000000000000000
    Total Energy =                       -227.8919284243301036



Properties will be evaluated at   0.000000,   0.000000,   0.000000 Bohr

Properties computed using the SCF density matrix

  Nuclear Dipole Moment: (a.u.)
     X:    35.6026      Y:  -340.4056      Z:     3.7294

  Electronic Dipole Moment: (a.u.)
     X:   -35.5884      Y:   340.3987      Z:    -3.7408

  Dipole Moment: (a.u.)
     X:     0.0141      Y:    -0.0069      Z:    -0.0114     Total:     0.0194

  Dipole Moment: (Debye)
     X:     0.0359      Y:    -0.0176      Z:    -0.0289     Total:     0.0493


*** tstop() called on Magnesium at Tue Mar 20 22:54:29 2018
Module time:
	user time   =      73.95 seconds =       1.23 minutes
	system time =       2.27 seconds =       0.04 minutes
	total time  =         32 seconds =       0.53 minutes
Total time:
	user time   =     301.09 seconds =       5.02 minutes
	system time =       8.50 seconds =       0.14 minutes
	total time  =        127 seconds =       2.12 minutes

       N-Body: Complex Energy (fragments = (1,), basis = (1, 2, 3, 4):  -227.89192842433013)

   ==> N-Body: Now computing 2-body complexes <==


       N-Body: Computing complex (1/6) with fragments (3, 4) in the basis of fragments (1, 2, 3, 4).


*** tstart() called on Magnesium
*** at Tue Mar 20 22:54:29 2018

   => Loading Basis Set <=

    Name: STO-3G
    Role: ORBITAL
    Keyword: BASIS
    atoms 1-6, 13-18, 25-30, 37-42  entry H          line    18 file /home/carlosborca/psi4conda/share/psi4/basis/sto-3g.gbs 
    atoms 7-12, 19-24, 31-36, 43-48 entry C          line    60 file /home/carlosborca/psi4conda/share/psi4/basis/sto-3g.gbs 

    There are an even number of electrons - assuming singlet.
    Specify the multiplicity in the molecule input block.


         ---------------------------------------------------------
                                   SCF
            by Justin Turney, Rob Parrish, and Andy Simmonett
                              RHF Reference
                        4 Threads,    476 MiB Core
         ---------------------------------------------------------

  ==> Geometry <==

    Molecular point group: c1
    Full point group: C1

    Geometry (in Bohr), charge = 0, multiplicity = 1:

       Center              X                  Y                   Z               Mass       
    ------------   -----------------  -----------------  -----------------  -----------------
           H(Gh)      2.762292060000    -5.112510430000     3.125888590000     1.007825032070
           H(Gh)     -1.066931820000   -11.097280660000    -2.948295910000     1.007825032070
           H(Gh)     -2.584935590000    -6.714620250000    -2.795154390000     1.007825032070
           H(Gh)      4.280295830000    -9.495170840000     2.972747080000     1.007825032070
           H(Gh)     -0.613066840000    -3.651030260000     0.247085470000     1.007825032070
           H(Gh)      2.308427080000   -12.558760830000    -0.069492790000     1.007825032070
           C(Gh)      1.922990980000    -6.399538650000     1.793943470000    12.000000000000
           C(Gh)     -0.227630740000    -9.810252440000    -1.616350790000    12.000000000000
           C(Gh)     -1.075310860000    -7.309181000000    -1.532702060000    12.000000000000
           C(Gh)      2.770671100000    -8.900610090000     1.710294750000    12.000000000000
           C(Gh)      0.000000000000    -5.625185570000     0.177592680000    12.000000000000
           C(Gh)      1.695360240000   -10.584605510000     0.000000000000    12.000000000000
           H(Gh)     -8.049469880000     3.788099650000     3.125888590000     1.007825032070
           H(Gh)     -4.220246000000    -2.196670570000    -2.948295910000     1.007825032070
           H(Gh)     -2.702242230000     2.185989840000    -2.795154390000     1.007825032070
           H(Gh)     -9.567473650000    -0.594560750000     2.972747080000     1.007825032070
           H(Gh)     -4.674110980000     5.249579830000     0.247085470000     1.007825032070
           H(Gh)     -7.595604900000    -3.658150750000    -0.069492790000     1.007825032070
           C(Gh)     -7.210168800000     2.501071430000     1.793943470000    12.000000000000
           C(Gh)     -5.059547080000    -0.909642350000    -1.616350790000    12.000000000000
           C(Gh)     -4.211866960000     1.591429080000    -1.532702060000    12.000000000000
           C(Gh)     -8.057848920000     0.000000000000     1.710294750000    12.000000000000
           C(Gh)     -5.287177820000     3.275424510000     0.177592680000    12.000000000000
           C(Gh)     -6.982538060000    -1.683995430000     0.000000000000    12.000000000000
           H          2.762292060000    -2.196670570000     9.560406080000     1.007825032070
           H         -1.066931820000     3.788099650000     3.486221570000     1.007825032070
           H         -2.584935590000    -0.594560750000     3.639363090000     1.007825032070
           H          4.280295830000     2.185989840000     9.407264560000     1.007825032070
           H         -0.613066840000    -3.658150750000     6.681602950000     1.007825032070
           H          2.308427080000     5.249579830000     6.365024690000     1.007825032070
           C          1.922990980000    -0.909642350000     8.228460960000    12.000000000000
           C         -0.227630740000     2.501071430000     4.818166690000    12.000000000000
           C         -1.075310860000     0.000000000000     4.901815420000    12.000000000000
           C          2.770671100000     1.591429080000     8.144812230000    12.000000000000
           C          0.000000000000    -1.683995430000     6.612110160000    12.000000000000
           C          1.695360240000     3.275424510000     6.434517480000    12.000000000000
           H         -4.674110980000   -12.558760830000     6.681602950000     1.007825032070
           H         -2.702242230000    -9.495170840000     3.639363090000     1.007825032070
           H         -8.049469880000   -11.097280660000     9.560406080000     1.007825032070
           H         -4.220246000000    -5.112510430000     3.486221570000     1.007825032070
           H         -9.567473650000    -6.714620250000     9.407264560000     1.007825032070
           H         -7.595604900000    -3.651030260000     6.365024690000     1.007825032070
           C         -5.287177820000   -10.584605510000     6.612110160000    12.000000000000
           C         -4.211866960000    -8.900610090000     4.901815420000    12.000000000000
           C         -7.210168800000    -9.810252440000     8.228460960000    12.000000000000
           C         -5.059547080000    -6.399538650000     4.818166690000    12.000000000000
           C         -8.057848920000    -7.309181000000     8.144812230000    12.000000000000
           C         -6.982538060000    -5.625185570000     6.434517480000    12.000000000000

  Running in c1 symmetry.

  Rotational constants: A =      0.00604  B =      0.00305  C =      0.00283 [cm^-1]
  Rotational constants: A =    181.04832  B =     91.30397  C =     84.77358 [MHz]
  Nuclear repulsion =  564.797879642376756

  Charge       = 0
  Multiplicity = 1
  Electrons    = 84
  Nalpha       = 42
  Nbeta        = 42

  ==> Algorithm <==

  SCF Algorithm Type is DF.
  DIIS enabled.
  MOM disabled.
  Fractional occupation disabled.
  Guess Type is SAD.
  Energy threshold   = 1.00e-08
  Density threshold  = 1.00e-06
  Integral threshold = 0.00e+00

  ==> Primary Basis <==

  Basis Set: STO-3G
    Blend: STO-3G
    Number of shells: 96
    Number of basis function: 144
    Number of Cartesian functions: 144
    Spherical Harmonics?: true
    Max angular momentum: 1

   => Loading Basis Set <=

    Name: (STO-3G AUX)
    Role: JKFIT
    Keyword: DF_BASIS_SCF
    atoms 1-6, 13-18, 25-30, 37-42  entry H          line    22 file /home/carlosborca/psi4conda/share/psi4/basis/def2-svp-jkfit.gbs 
    atoms 7-12, 19-24, 31-36, 43-48 entry C          line   202 file /home/carlosborca/psi4conda/share/psi4/basis/def2-svp-jkfit.gbs 

  ==> Pre-Iterations <==

   -------------------------------------------------------
    Irrep   Nso     Nmo     Nalpha   Nbeta   Ndocc  Nsocc
   -------------------------------------------------------
     A        144     144       0       0       0       0
   -------------------------------------------------------
    Total     144     144      42      42      42       0
   -------------------------------------------------------

  ==> Integral Setup <==

  ==> DFJK: Density-Fitted J/K Matrices <==

    J tasked:                  Yes
    K tasked:                  Yes
    wK tasked:                  No
    OpenMP threads:              4
    Integrals threads:           4
    Memory (MB):               357
    Algorithm:                Core
    Integral Cache:           NONE
    Schwarz Cutoff:          1E-12
    Fitting Condition:       1E-12

   => Auxiliary Basis Set <=

  Basis Set: (STO-3G AUX)
    Blend: DEF2-SVP-JKFIT
    Number of shells: 744
    Number of basis function: 2232
    Number of Cartesian functions: 2616
    Spherical Harmonics?: true
    Max angular momentum: 4

  Minimum eigenvalue in the overlap matrix is 1.7071019530E-01.
  Using Symmetric Orthogonalization.

  SCF Guess: Superposition of Atomic Densities via on-the-fly atomic UHF.

  ==> Iterations <==

                           Total Energy        Delta E     RMS |[F,P]|

   @DF-RHF iter   0:  -457.46009843309128   -4.57460e+02   7.17016e-02 
   @DF-RHF iter   1:  -455.60859985993739    1.85150e+00   5.92419e-03 
   @DF-RHF iter   2:  -455.76700847301277   -1.58409e-01   1.64486e-03 DIIS
   @DF-RHF iter   3:  -455.78079490954832   -1.37864e-02   4.49223e-04 DIIS
   @DF-RHF iter   4:  -455.78171075544685   -9.15846e-04   1.22963e-04 DIIS
   @DF-RHF iter   5:  -455.78183958724310   -1.28832e-04   3.88498e-05 DIIS
   @DF-RHF iter   6:  -455.78185473902352   -1.51518e-05   6.88327e-06 DIIS
   @DF-RHF iter   7:  -455.78185498101971   -2.41996e-07   2.13417e-06 DIIS
   @DF-RHF iter   8:  -455.78185500314453   -2.21248e-08   2.66621e-07 DIIS
   @DF-RHF iter   9:  -455.78185500368181   -5.37284e-10   7.13298e-08 DIIS

  ==> Post-Iterations <==

    Orbital Energies (a.u.)
    -----------------------

    Doubly Occupied:                                                      

       1A    -11.030647     2A    -11.030549     3A    -11.030343  
       4A    -11.030196     5A    -11.029643     6A    -11.029593  
       7A    -11.029247     8A    -11.029180     9A    -11.028937  
      10A    -11.028541    11A    -11.028447    12A    -11.027978  
      13A     -1.091875    14A     -1.090318    15A     -0.957519  
      16A     -0.955616    17A     -0.954960    18A     -0.953315  
      19A     -0.769654    20A     -0.767148    21A     -0.766827  
      22A     -0.765129    23A     -0.664610    24A     -0.659948  
      25A     -0.594804    26A     -0.593461    27A     -0.555378  
      28A     -0.553990    29A     -0.538353    30A     -0.534648  
      31A     -0.532678    32A     -0.529115    33A     -0.457932  
      34A     -0.456366    35A     -0.439063    36A     -0.436517  
      37A     -0.428645    38A     -0.427149    39A     -0.282287  
      40A     -0.280678    41A     -0.280165    42A     -0.278992  

    Virtual:                                                              

      43A      0.251997    44A      0.255647    45A      0.265620  
      46A      0.267132    47A      0.270118    48A      0.271639  
      49A      0.377508    50A      0.381862    51A      0.383825  
      52A      0.387256    53A      0.502941    54A      0.504489  
      55A      0.563441    56A      0.579134    57A      0.581978  
      58A      0.586173    59A      0.589542    60A      0.594347  
      61A      0.635241    62A      0.639582    63A      0.652917  
      64A      0.662383    65A      0.709204    66A      0.722561  
      67A      0.724003    68A      0.727655    69A      0.733329  
      70A      0.734327    71A      0.740855    72A      0.746452  
      73A      0.779670    74A      0.797300    75A      0.877368  
      76A      0.881707    77A      0.886320    78A      0.886786  
      79A      0.893420    80A      0.897282    81A      0.899268  
      82A      0.905335    83A      0.938209    84A      0.954192  
      85A      0.957201    86A      0.972647    87A      1.088126  
      88A      1.089562    89A      1.092042    90A      1.093176  
      91A      1.148233    92A      1.149270    93A      1.150490  
      94A      1.159229    95A      1.160903    96A      1.166207  
      97A      1.307032    98A      1.308664    99A      1.322251  
     100A      1.322775   101A      1.324015   102A      1.325521  
     103A      1.505618   104A      1.515305   105A      1.769215  
     106A      1.787228   107A      1.820807   108A      1.821282  
     109A      1.826384   110A      1.827851   111A      1.934984  
     112A      1.938078   113A      1.949000   114A      1.960841  
     115A      2.102122   116A      2.107918   117A      2.119319  
     118A      2.133568   119A      2.166292   120A      2.167816  
     121A      2.778170   122A      2.783102   123A      2.786403  
     124A      2.789338   125A      2.805687   126A      2.808500  
     127A      2.824032   128A      2.825435   129A      3.236030  
     130A      3.241027   131A      3.365456   132A      3.366797  
     133A     17.075561   134A     17.077494   135A     17.329172  
     136A     17.329503   137A     17.331058   138A     17.333169  
     139A     17.792860   140A     17.793751   141A     17.797800  
     142A     17.798810   143A     18.061071   144A     18.063920  

    Final Occupation by Irrep:
              A 
    DOCC [    42 ]

  Energy converged.

  @DF-RHF Final Energy:  -455.78185500368181

   => Energetics <=

    Nuclear Repulsion Energy =            564.7978796423767562
    One-Electron Energy =               -1739.2585802383521241
    Two-Electron Energy =                 718.6788455922935555
    DFT Exchange-Correlation Energy =       0.0000000000000000
    Empirical Dispersion Energy =           0.0000000000000000
    PCM Polarization Energy =               0.0000000000000000
    EFP Energy =                            0.0000000000000000
    Total Energy =                       -455.7818550036818124



Properties will be evaluated at   0.000000,   0.000000,   0.000000 Bohr

Properties computed using the SCF density matrix

  Nuclear Dipole Moment: (a.u.)
     X:  -222.0615      Y:  -306.9856      Z:   547.9584

  Electronic Dipole Moment: (a.u.)
     X:   222.0532      Y:   306.9693      Z:  -547.9301

  Dipole Moment: (a.u.)
     X:    -0.0083      Y:    -0.0163      Z:     0.0283     Total:     0.0337

  Dipole Moment: (Debye)
     X:    -0.0211      Y:    -0.0414      Z:     0.0719     Total:     0.0856


*** tstop() called on Magnesium at Tue Mar 20 22:55:03 2018
Module time:
	user time   =      81.50 seconds =       1.36 minutes
	system time =       3.23 seconds =       0.05 minutes
	total time  =         34 seconds =       0.57 minutes
Total time:
	user time   =     382.61 seconds =       6.38 minutes
	system time =      11.73 seconds =       0.20 minutes
	total time  =        161 seconds =       2.68 minutes

       N-Body: Complex Energy (fragments = (3, 4), basis = (1, 2, 3, 4):  -455.78185500368181)

       N-Body: Computing complex (2/6) with fragments (1, 4) in the basis of fragments (1, 2, 3, 4).


*** tstart() called on Magnesium
*** at Tue Mar 20 22:55:03 2018

   => Loading Basis Set <=

    Name: STO-3G
    Role: ORBITAL
    Keyword: BASIS
    atoms 1-6, 13-18, 25-30, 37-42  entry H          line    18 file /home/carlosborca/psi4conda/share/psi4/basis/sto-3g.gbs 
    atoms 7-12, 19-24, 31-36, 43-48 entry C          line    60 file /home/carlosborca/psi4conda/share/psi4/basis/sto-3g.gbs 

    There are an even number of electrons - assuming singlet.
    Specify the multiplicity in the molecule input block.


         ---------------------------------------------------------
                                   SCF
            by Justin Turney, Rob Parrish, and Andy Simmonett
                              RHF Reference
                        4 Threads,    476 MiB Core
         ---------------------------------------------------------

  ==> Geometry <==

    Molecular point group: c1
    Full point group: C1

    Geometry (in Bohr), charge = 0, multiplicity = 1:

       Center              X                  Y                   Z               Mass       
    ------------   -----------------  -----------------  -----------------  -----------------
           H          2.762292060000    -5.112510430000     3.125888590000     1.007825032070
           H         -1.066931820000   -11.097280660000    -2.948295910000     1.007825032070
           H         -2.584935590000    -6.714620250000    -2.795154390000     1.007825032070
           H          4.280295830000    -9.495170840000     2.972747080000     1.007825032070
           H         -0.613066840000    -3.651030260000     0.247085470000     1.007825032070
           H          2.308427080000   -12.558760830000    -0.069492790000     1.007825032070
           C          1.922990980000    -6.399538650000     1.793943470000    12.000000000000
           C         -0.227630740000    -9.810252440000    -1.616350790000    12.000000000000
           C         -1.075310860000    -7.309181000000    -1.532702060000    12.000000000000
           C          2.770671100000    -8.900610090000     1.710294750000    12.000000000000
           C          0.000000000000    -5.625185570000     0.177592680000    12.000000000000
           C          1.695360240000   -10.584605510000     0.000000000000    12.000000000000
           H(Gh)     -8.049469880000     3.788099650000     3.125888590000     1.007825032070
           H(Gh)     -4.220246000000    -2.196670570000    -2.948295910000     1.007825032070
           H(Gh)     -2.702242230000     2.185989840000    -2.795154390000     1.007825032070
           H(Gh)     -9.567473650000    -0.594560750000     2.972747080000     1.007825032070
           H(Gh)     -4.674110980000     5.249579830000     0.247085470000     1.007825032070
           H(Gh)     -7.595604900000    -3.658150750000    -0.069492790000     1.007825032070
           C(Gh)     -7.210168800000     2.501071430000     1.793943470000    12.000000000000
           C(Gh)     -5.059547080000    -0.909642350000    -1.616350790000    12.000000000000
           C(Gh)     -4.211866960000     1.591429080000    -1.532702060000    12.000000000000
           C(Gh)     -8.057848920000     0.000000000000     1.710294750000    12.000000000000
           C(Gh)     -5.287177820000     3.275424510000     0.177592680000    12.000000000000
           C(Gh)     -6.982538060000    -1.683995430000     0.000000000000    12.000000000000
           H(Gh)      2.762292060000    -2.196670570000     9.560406080000     1.007825032070
           H(Gh)     -1.066931820000     3.788099650000     3.486221570000     1.007825032070
           H(Gh)     -2.584935590000    -0.594560750000     3.639363090000     1.007825032070
           H(Gh)      4.280295830000     2.185989840000     9.407264560000     1.007825032070
[...]
      16A    -11.026314    17A    -11.025431    18A    -11.025120  
      19A     -1.092713    20A     -1.091176    21A     -1.088150  
      22A     -0.958052    23A     -0.956580    24A     -0.956027  
      25A     -0.954220    26A     -0.952794    27A     -0.951346  
      28A     -0.769827    29A     -0.769294    30A     -0.766724  
      31A     -0.766306    32A     -0.764389    33A     -0.763078  
      34A     -0.665710    35A     -0.661404    36A     -0.658250  
      37A     -0.597052    38A     -0.592558    39A     -0.590842  
      40A     -0.555686    41A     -0.554727    42A     -0.551828  
      43A     -0.539037    44A     -0.536538    45A     -0.534404  
      46A     -0.531993    47A     -0.529589    48A     -0.528064  
      49A     -0.458136    50A     -0.457072    51A     -0.454456  
      52A     -0.438670    53A     -0.438344    54A     -0.434152  
      55A     -0.429977    56A     -0.426192    57A     -0.424392  
      58A     -0.283092    59A     -0.281532    60A     -0.280649  
      61A     -0.279931    62A     -0.278861    63A     -0.275943  

    Virtual:                                                              

      64A      0.252443    65A      0.265292    66A      0.266105  
      67A      0.269072    68A      0.269542    69A      0.271098  
      70A      0.273545    71A      0.380540    72A      0.381323  
      73A      0.502241    74A      0.503932    75A      0.506471  
      76A      0.564871    77A      0.570735    78A      0.580714  
      79A      0.589122    80A      0.592995    81A      0.631448  
      82A      0.641452    83A      0.643247    84A      0.654809  
      85A      0.656485    86A      0.665630    87A      0.710661  
      88A      0.719985    89A      0.723295    90A      0.725537  
      91A      0.729155    92A      0.730776    93A      0.734365  
      94A      0.739019    95A      0.743580    96A      0.750116  
      97A      0.789702    98A      0.875218    99A      0.881223  
     100A      0.884746   101A      0.886452   102A      0.888287  
     103A      0.889065   104A      0.894285   105A      0.895107  
     106A      0.898286   107A      0.900031   108A      0.902843  
     109A      0.907719   110A      0.954281   111A      0.958340  
     112A      1.087853   113A      1.088841   114A      1.091738  
     115A      1.092415   116A      1.148717   117A      1.150960  
     118A      1.152225   119A      1.158531   120A      1.159950  
     121A      1.306528   122A      1.322129   123A      1.324224  
     124A      1.509230   125A      1.777557   126A      1.819511  
     127A      1.826128   128A      1.934987   129A      1.953156  
     130A      2.106381   131A      2.120634   132A      2.165332  
     133A      2.780983   134A      2.784808   135A      2.805066  
     136A      2.823403   137A      3.236965   138A      3.364763  
     139A     17.075146   140A     17.328820   141A     17.329872  
     142A     17.792771   143A     17.796065   144A     18.061106  

    Final Occupation by Irrep:
              A 
    DOCC [    63 ]

  Energy converged.

  @DF-RHF Final Energy:  -683.67088310293434

   => Energetics <=

    Nuclear Repulsion Energy =           1112.5718428512479932
    One-Electron Energy =               -3139.7143079218194544
    Two-Electron Energy =                1343.4715819676371211
    DFT Exchange-Correlation Energy =       0.0000000000000000
    Empirical Dispersion Energy =           0.0000000000000000
    PCM Polarization Energy =               0.0000000000000000
    EFP Energy =                            0.0000000000000000
    Total Energy =                       -683.6708831029343401



Properties will be evaluated at   0.000000,   0.000000,   0.000000 Bohr

Properties computed using the SCF density matrix

  Nuclear Dipole Moment: (a.u.)
     X:  -186.4589      Y:  -647.3912      Z:   551.6878

  Electronic Dipole Moment: (a.u.)
     X:   186.5080      Y:   647.3795      Z:  -551.6943

  Dipole Moment: (a.u.)
     X:     0.0491      Y:    -0.0117      Z:    -0.0065     Total:     0.0508

  Dipole Moment: (Debye)
     X:     0.1247      Y:    -0.0297      Z:    -0.0165     Total:     0.1292


*** tstop() called on Magnesium at Tue Mar 20 23:00:23 2018
Module time:
	user time   =      84.65 seconds =       1.41 minutes
	system time =       3.64 seconds =       0.06 minutes
	total time  =         37 seconds =       0.62 minutes
Total time:
	user time   =    1129.65 seconds =      18.83 minutes
	system time =      42.27 seconds =       0.70 minutes
	total time  =        481 seconds =       8.02 minutes

       N-Body: Complex Energy (fragments = (1, 3, 4), basis = (1, 2, 3, 4):  -683.67088310293434)

   ==> N-Body: Now computing 4-body complexes <==


       N-Body: Computing complex (1/1) with fragments (1, 2, 3, 4) in the basis of fragments (1, 2, 3, 4).


*** tstart() called on Magnesium
*** at Tue Mar 20 23:00:23 2018

   => Loading Basis Set <=

    Name: STO-3G
    Role: ORBITAL
    Keyword: BASIS
    atoms 1-6, 13-18, 25-30, 37-42  entry H          line    18 file /home/carlosborca/psi4conda/share/psi4/basis/sto-3g.gbs 
    atoms 7-12, 19-24, 31-36, 43-48 entry C          line    60 file /home/carlosborca/psi4conda/share/psi4/basis/sto-3g.gbs 

    There are an even number of electrons - assuming singlet.
    Specify the multiplicity in the molecule input block.


         ---------------------------------------------------------
                                   SCF
            by Justin Turney, Rob Parrish, and Andy Simmonett
                              RHF Reference
                        4 Threads,    476 MiB Core
         ---------------------------------------------------------

  ==> Geometry <==

    Molecular point group: c1
    Full point group: C1

    Geometry (in Bohr), charge = 0, multiplicity = 1:

       Center              X                  Y                   Z               Mass       
    ------------   -----------------  -----------------  -----------------  -----------------
           H          2.762292060000    -5.112510430000     3.125888590000     1.007825032070
           H         -1.066931820000   -11.097280660000    -2.948295910000     1.007825032070
           H         -2.584935590000    -6.714620250000    -2.795154390000     1.007825032070
           H          4.280295830000    -9.495170840000     2.972747080000     1.007825032070
           H         -0.613066840000    -3.651030260000     0.247085470000     1.007825032070
           H          2.308427080000   -12.558760830000    -0.069492790000     1.007825032070
           C          1.922990980000    -6.399538650000     1.793943470000    12.000000000000
           C         -0.227630740000    -9.810252440000    -1.616350790000    12.000000000000
           C         -1.075310860000    -7.309181000000    -1.532702060000    12.000000000000
           C          2.770671100000    -8.900610090000     1.710294750000    12.000000000000
           C          0.000000000000    -5.625185570000     0.177592680000    12.000000000000
           C          1.695360240000   -10.584605510000     0.000000000000    12.000000000000
           H         -8.049469880000     3.788099650000     3.125888590000     1.007825032070
           H         -4.220246000000    -2.196670570000    -2.948295910000     1.007825032070
           H         -2.702242230000     2.185989840000    -2.795154390000     1.007825032070
           H         -9.567473650000    -0.594560750000     2.972747080000     1.007825032070
           H         -4.674110980000     5.249579830000     0.247085470000     1.007825032070
           H         -7.595604900000    -3.658150750000    -0.069492790000     1.007825032070
           C         -7.210168800000     2.501071430000     1.793943470000    12.000000000000
           C         -5.059547080000    -0.909642350000    -1.616350790000    12.000000000000
           C         -4.211866960000     1.591429080000    -1.532702060000    12.000000000000
           C         -8.057848920000     0.000000000000     1.710294750000    12.000000000000
           C         -5.287177820000     3.275424510000     0.177592680000    12.000000000000
           C         -6.982538060000    -1.683995430000     0.000000000000    12.000000000000
           H          2.762292060000    -2.196670570000     9.560406080000     1.007825032070
           H         -1.066931820000     3.788099650000     3.486221570000     1.007825032070
           H         -2.584935590000    -0.594560750000     3.639363090000     1.007825032070
           H          4.280295830000     2.185989840000     9.407264560000     1.007825032070
           H         -0.613066840000    -3.658150750000     6.681602950000     1.007825032070
           H          2.308427080000     5.249579830000     6.365024690000     1.007825032070
           C          1.922990980000    -0.909642350000     8.228460960000    12.000000000000
           C         -0.227630740000     2.501071430000     4.818166690000    12.000000000000
           C         -1.075310860000     0.000000000000     4.901815420000    12.000000000000
           C          2.770671100000     1.591429080000     8.144812230000    12.000000000000
           C          0.000000000000    -1.683995430000     6.612110160000    12.000000000000
           C          1.695360240000     3.275424510000     6.434517480000    12.000000000000
           H         -4.674110980000   -12.558760830000     6.681602950000     1.007825032070
           H         -2.702242230000    -9.495170840000     3.639363090000     1.007825032070
           H         -8.049469880000   -11.097280660000     9.560406080000     1.007825032070
           H         -4.220246000000    -5.112510430000     3.486221570000     1.007825032070
           H         -9.567473650000    -6.714620250000     9.407264560000     1.007825032070
           H         -7.595604900000    -3.651030260000     6.365024690000     1.007825032070
           C         -5.287177820000   -10.584605510000     6.612110160000    12.000000000000
           C         -4.211866960000    -8.900610090000     4.901815420000    12.000000000000
           C         -7.210168800000    -9.810252440000     8.228460960000    12.000000000000
           C         -5.059547080000    -6.399538650000     4.818166690000    12.000000000000
           C         -8.057848920000    -7.309181000000     8.144812230000    12.000000000000
           C         -6.982538060000    -5.625185570000     6.434517480000    12.000000000000

  Running in c1 symmetry.

  Rotational constants: A =      0.00604  B =      0.00305  C =      0.00283 [cm^-1]
  Rotational constants: A =    181.04832  B =     91.30397  C =     84.77358 [MHz]
  Nuclear repulsion = 1817.979674611144446

  Charge       = 0
  Multiplicity = 1
  Electrons    = 168
  Nalpha       = 84
  Nbeta        = 84

  ==> Algorithm <==

  SCF Algorithm Type is DF.
  DIIS enabled.
  MOM disabled.
  Fractional occupation disabled.
  Guess Type is SAD.
  Energy threshold   = 1.00e-08
  Density threshold  = 1.00e-06
  Integral threshold = 0.00e+00

  ==> Primary Basis <==

  Basis Set: STO-3G
    Blend: STO-3G
    Number of shells: 96
    Number of basis function: 144
    Number of Cartesian functions: 144
    Spherical Harmonics?: true
    Max angular momentum: 1

   => Loading Basis Set <=

    Name: (STO-3G AUX)
    Role: JKFIT
    Keyword: DF_BASIS_SCF
    atoms 1-6, 13-18, 25-30, 37-42  entry H          line    22 file /home/carlosborca/psi4conda/share/psi4/basis/def2-svp-jkfit.gbs 
    atoms 7-12, 19-24, 31-36, 43-48 entry C          line   202 file /home/carlosborca/psi4conda/share/psi4/basis/def2-svp-jkfit.gbs 

  ==> Pre-Iterations <==

   -------------------------------------------------------
    Irrep   Nso     Nmo     Nalpha   Nbeta   Ndocc  Nsocc
   -------------------------------------------------------
     A        144     144       0       0       0       0
   -------------------------------------------------------
    Total     144     144      84      84      84       0
   -------------------------------------------------------

  ==> Integral Setup <==

  ==> DFJK: Density-Fitted J/K Matrices <==

    J tasked:                  Yes
    K tasked:                  Yes
    wK tasked:                  No
    OpenMP threads:              4
    Integrals threads:           4
    Memory (MB):               357
    Algorithm:                Core
    Integral Cache:           NONE
    Schwarz Cutoff:          1E-12
    Fitting Condition:       1E-12

   => Auxiliary Basis Set <=

  Basis Set: (STO-3G AUX)
    Blend: DEF2-SVP-JKFIT
    Number of shells: 744
    Number of basis function: 2232
    Number of Cartesian functions: 2616
    Spherical Harmonics?: true
    Max angular momentum: 4

  Minimum eigenvalue in the overlap matrix is 1.7071019530E-01.
  Using Symmetric Orthogonalization.

  SCF Guess: Superposition of Atomic Densities via on-the-fly atomic UHF.

  ==> Iterations <==

                           Total Energy        Delta E     RMS |[F,P]|

   @DF-RHF iter   0:  -914.91834780691943   -9.14918e+02   1.01433e-01 
   @DF-RHF iter   1:  -911.18728581548021    3.73106e+00   8.47549e-03 
   @DF-RHF iter   2:  -911.52305912972020   -3.35773e-01   2.44239e-03 DIIS
   @DF-RHF iter   3:  -911.55640039584796   -3.33413e-02   6.86305e-04 DIIS
   @DF-RHF iter   4:  -911.55885487596368   -2.45448e-03   2.17812e-04 DIIS
   @DF-RHF iter   5:  -911.55927728019969   -4.22404e-04   5.94390e-05 DIIS
   @DF-RHF iter   6:  -911.55931109644780   -3.38162e-05   1.05753e-05 DIIS
   @DF-RHF iter   7:  -911.55931161871285   -5.22265e-07   3.20933e-06 DIIS
   @DF-RHF iter   8:  -911.55931166800497   -4.92921e-08   4.42223e-07 DIIS
   @DF-RHF iter   9:  -911.55931166952098   -1.51601e-09   1.57322e-07 DIIS

  ==> Post-Iterations <==

    Orbital Energies (a.u.)
    -----------------------

    Doubly Occupied:                                                      

       1A    -11.033339     2A    -11.033058     3A    -11.032888  
       4A    -11.032641     5A    -11.032349     6A    -11.031968  
       7A    -11.030310     8A    -11.030260     9A    -11.029757  
      10A    -11.029504    11A    -11.029129    12A    -11.028348  
      13A    -11.026821    14A    -11.026527    15A    -11.026265  
      16A    -11.025967    17A    -11.025820    18A    -11.025640  
      19A    -11.025554    20A    -11.025290    21A    -11.025138  
      22A    -11.024761    23A    -11.024388    24A    -11.023648  
      25A     -1.095095    26A     -1.091976    27A     -1.087860  
      28A     -1.087300    29A     -0.960348    30A     -0.958320  
      31A     -0.957007    32A     -0.955255    33A     -0.952920  
      34A     -0.952522    35A     -0.950637    36A     -0.950367  
      37A     -0.772091    38A     -0.770190    39A     -0.768511  
      40A     -0.767633    41A     -0.764997    42A     -0.763713  
      43A     -0.762787    44A     -0.761413    45A     -0.667895  
      46A     -0.662502    47A     -0.660051    48A     -0.656258  
      49A     -0.598343    50A     -0.595375    51A     -0.590370  
      52A     -0.589098    53A     -0.558035    54A     -0.555037  
      55A     -0.551399    56A     -0.550972    57A     -0.540718  
      58A     -0.538392    59A     -0.536499    60A     -0.534695  
      61A     -0.531146    62A     -0.530050    63A     -0.528102  
      64A     -0.525327    65A     -0.460257    66A     -0.457294  
      67A     -0.454191    68A     -0.453433    69A     -0.441271  
      70A     -0.437506    71A     -0.435066    72A     -0.434123  
      73A     -0.430075    74A     -0.428469    75A     -0.423121  
      76A     -0.422989    77A     -0.284967    78A     -0.283387  
      79A     -0.281993    80A     -0.280709    81A     -0.278467  
      82A     -0.277747    83A     -0.275999    84A     -0.275124  

    Virtual:                                                              

      85A      0.262789    86A      0.265817    87A      0.266591  
      88A      0.269576    89A      0.270038    90A      0.270628  
      91A      0.274168    92A      0.274339    93A      0.499640  
      94A      0.503055    95A      0.507103    96A      0.507392  
      97A      0.561510    98A      0.578522    99A      0.581829  
     100A      0.588560   101A      0.631000   102A      0.634725  
     103A      0.639123   104A      0.646487   105A      0.653255  
     106A      0.657981   107A      0.662517   108A      0.669669  
     109A      0.712204   110A      0.720741   111A      0.722159  
     112A      0.723877   113A      0.726985   114A      0.727739  
     115A      0.732782   116A      0.733494   117A      0.738055  
     118A      0.742713   119A      0.746605   120A      0.752816  
     121A      0.875574   122A      0.877714   123A      0.879485  
     124A      0.884502   125A      0.887427   126A      0.889109  
     127A      0.890952   128A      0.891577   129A      0.892864  
     130A      0.896082   131A      0.897422   132A      0.899939  
     133A      0.901266   134A      0.904669   135A      0.905043  
     136A      0.910521   137A      1.085592   138A      1.088658  
     139A      1.092356   140A      1.092821   141A      1.147206  
     142A      1.151140   143A      1.155877   144A      1.156784  

    Final Occupation by Irrep:
              A 
    DOCC [    84 ]

  Energy converged.

  @DF-RHF Final Energy:  -911.55931166952098

   => Energetics <=

    Nuclear Repulsion Energy =           1817.9796746111444463
    One-Electron Energy =               -4855.4244548419301282
    Two-Electron Energy =                2125.8854685612650428
    DFT Exchange-Correlation Energy =       0.0000000000000000
    Empirical Dispersion Energy =           0.0000000000000000
    PCM Polarization Energy =               0.0000000000000000
    EFP Energy =                            0.0000000000000000
    Total Energy =                       -911.5593116695208664



Properties will be evaluated at   0.000000,   0.000000,   0.000000 Bohr

Properties computed using the SCF density matrix

  Nuclear Dipole Moment: (a.u.)
     X:  -444.1229      Y:  -613.9712      Z:   555.4173

  Electronic Dipole Moment: (a.u.)
     X:   444.1153      Y:   613.9909      Z:  -555.4703

  Dipole Moment: (a.u.)
     X:    -0.0076      Y:     0.0197      Z:    -0.0530     Total:     0.0571

  Dipole Moment: (Debye)
     X:    -0.0194      Y:     0.0500      Z:    -0.1348     Total:     0.1450


*** tstop() called on Magnesium at Tue Mar 20 23:01:01 2018
Module time:
	user time   =      87.52 seconds =       1.46 minutes
	system time =       4.37 seconds =       0.07 minutes
	total time  =         38 seconds =       0.63 minutes
Total time:
	user time   =    1217.19 seconds =      20.29 minutes
	system time =      46.64 seconds =       0.78 minutes
	total time  =        519 seconds =       8.65 minutes

       N-Body: Complex Energy (fragments = (1, 2, 3, 4), basis = (1, 2, 3, 4):  -911.55931166952098)

   ==> N-Body: Counterpoise Corrected (CP)  energies <==

   n-Body     Total Energy [Eh]       I.E. [kcal/mol]      Delta [kcal/mol]
        1     -911.567156633532        0.000000000000        0.000000000000
        2     -911.559196265592        4.995206505685        4.995206505685
        3     -911.559314399443        4.921076391659       -0.074130114026
        4     -911.559311669521        4.922789443873        0.001713052214

   => Loading Basis Set <=

    Name: STO-3G
    Role: ORBITAL
    Keyword: BASIS
    atoms 1-6, 13-18, 25-30, 37-42  entry H          line    18 file /home/carlosborca/psi4conda/share/psi4/basis/sto-3g.gbs 
    atoms 7-12, 19-24, 31-36, 43-48 entry C          line    60 file /home/carlosborca/psi4conda/share/psi4/basis/sto-3g.gbs 

    There are an even number of electrons - assuming singlet.
    Specify the multiplicity in the molecule input block.


*** Psi4 exiting successfully. Buy a developer a beer!
