
    -----------------------------------------------------------------------
          Psi4: An Open-Source Ab Initio Electronic Structure Package
                               Psi4 1.1 release

                         Git: Rev {HEAD} add49b9 


    R. M. Parrish, L. A. Burns, D. G. A. Smith, A. C. Simmonett,
    A. E. DePrince III, E. G. Hohenstein, U. Bozkaya, A. Yu. Sokolov,
    R. Di Remigio, R. M. Richard, J. F. Gonthier, A. M. James,
    H. R. McAlexander, A. Kumar, M. Saitow, X. Wang, B. P. Pritchard,
    P. Verma, H. F. Schaefer III, K. Patkowski, R. A. King, E. F. Valeev,
    F. A. Evangelista, J. M. Turney, T. D. Crawford, and C. D. Sherrill,
    J. Chem. Theory Comput. in press (2017).
    (doi: 10.1021/acs.jctc.7b00174)

    -----------------------------------------------------------------------


    Psi4 started on: Tuesday, 20 March 2018 11:01PM

    Process ID:   1038
    PSIDATADIR: /home/carlosborca/psi4conda/share/psi4
    Memory:     500.0 MiB
    Threads:    4
    
  ==> Input File <==

--------------------------------------------------------------------------
# PSI4 file produced by CrystaLattE

# Psithon input for N-mer:     5mer-0+1+2+3+4
# Number of replicas:          1
# Priority index for input:    3.04494217e-23
# Minimum monomer separations: 2.544  2.544  2.632  2.632  2.680  2.680  2.680  2.680  4.716  5.059 
# Minimum COM separations:     5.025  5.025  5.025  5.025  5.812  5.812  5.986  5.986  6.810  7.390 

memory 500 MB

molecule Pentamer_0_1_2_3_4 {
  H            2.76229206      -5.11251043       3.12588859 
  H           -1.06693182     -11.09728066      -2.94829591 
  H           -2.58493559      -6.71462025      -2.79515439 
  H            4.28029583      -9.49517084       2.97274708 
  H           -0.61306684      -3.65103026       0.24708547 
  H            2.30842708     -12.55876083      -0.06949279 
  C            1.92299098      -6.39953865       1.79394347 
  C           -0.22763074      -9.81025244      -1.61635079 
  C           -1.07531086      -7.30918100      -1.53270206 
  C            2.77067110      -8.90061009       1.71029475 
  C            0.00000000      -5.62518557       0.17759268 
  C            1.69536024     -10.58460551      -0.00000000 
--
  H           -8.04946988       3.78809965       3.12588859 
  H           -4.22024600      -2.19667057      -2.94829591 
  H           -2.70224223       2.18598984      -2.79515439 
  H           -9.56747365      -0.59456075       2.97274708 
  H           -4.67411098       5.24957983       0.24708547 
  H           -7.59560490      -3.65815075      -0.06949279 
  C           -7.21016880       2.50107143       1.79394347 
  C           -5.05954708      -0.90964235      -1.61635079 
  C           -4.21186696       1.59142908      -1.53270206 
  C           -8.05784892       0.00000000       1.71029475 
  C           -5.28717782       3.27542451       0.17759268 
  C           -6.98253806      -1.68399543      -0.00000000 
--
  H            2.76229206      -2.19667057       9.56040608 
  H           -1.06693182       3.78809965       3.48622157 
  H           -2.58493559      -0.59456075       3.63936309 
  H            4.28029583       2.18598984       9.40726456 
  H           -0.61306684      -3.65815075       6.68160295 
  H            2.30842708       5.24957983       6.36502469 
  C            1.92299098      -0.90964235       8.22846096 
  C           -0.22763074       2.50107143       4.81816669 
  C           -1.07531086       0.00000000       4.90181542 
  C            2.77067110       1.59142908       8.14481223 
  C            0.00000000      -1.68399543       6.61211016 
  C            1.69536024       3.27542451       6.43451748 
--
  H            2.76229206      -2.19667057      -3.30862889 
  H           -1.06693182       3.78809965      -9.38281339 
  H           -2.58493559      -0.59456075      -9.22967188 
  H            4.28029583       2.18598984      -3.46177041 
  H           -0.61306684      -3.65815075      -6.18743201 
  H            2.30842708       5.24957983      -6.50401027 
  C            1.92299098      -0.90964235      -4.64057401 
  C           -0.22763074       2.50107143      -8.05086827 
  C           -1.07531086       0.00000000      -7.96721955 
  C            2.77067110       1.59142908      -4.72422274 
  C            0.00000000      -1.68399543      -6.25692480 
  C            1.69536024       3.27542451      -6.43451748 
--
  H            5.91560625       3.78809965       3.12588859 
  H            9.74483012      -2.19667057      -2.94829591 
  H           11.26283389       2.18598984      -2.79515439 
  H            4.39760247      -0.59456075       2.97274708 
  H            9.29096514       5.24957983       0.24708547 
  H            6.36947122      -3.65815075      -0.06949279 
  C            6.75490732       2.50107143       1.79394347 
  C            8.90552904      -0.90964235      -1.61635079 
  C            9.75320916       1.59142908      -1.53270206 
  C            5.90722720       0.00000000       1.71029475 
  C            8.67789830       3.27542451       0.17759268 
  C            6.98253806      -1.68399543      -0.00000000 
units = au
no_com
no_reorient
}

set {
  e_convergence 8
  scf_type df
  mp2_type df
  cc_type df
  freeze_core true
}

energy('scf/STO-3G', bsse_type = 'cp')

--------------------------------------------------------------------------

  Memory set to 476.837 MiB by Python driver.


   ===> N-Body Interaction Abacus <===
        BSSE Treatment:                     cp
        Number of 1-body computations:     5
        Number of 2-body computations:     10
        Number of 3-body computations:     10
        Number of 4-body computations:     5
        Number of 5-body computations:     1

   ==> N-Body: Now computing 1-body complexes <==


       N-Body: Computing complex (1/5) with fragments (1,) in the basis of fragments (1, 2, 3, 4, 5).


*** tstart() called on Magnesium
*** at Tue Mar 20 23:01:26 2018

   => Loading Basis Set <=

    Name: STO-3G
    Role: ORBITAL
    Keyword: BASIS
    atoms 1-6, 13-18, 25-30, 37-42, 49-54  entry H          line    18 file /home/carlosborca/psi4conda/share/psi4/basis/sto-3g.gbs 
    atoms 7-12, 19-24, 31-36, 43-48, 55-60 entry C          line    60 file /home/carlosborca/psi4conda/share/psi4/basis/sto-3g.gbs 

    There are an even number of electrons - assuming singlet.
    Specify the multiplicity in the molecule input block.


         ---------------------------------------------------------
                                   SCF
            by Justin Turney, Rob Parrish, and Andy Simmonett
                              RHF Reference
                        4 Threads,    476 MiB Core
         ---------------------------------------------------------

  ==> Geometry <==

    Molecular point group: c1
    Full point group: C1

    Geometry (in Bohr), charge = 0, multiplicity = 1:

       Center              X                  Y                   Z               Mass       
    ------------   -----------------  -----------------  -----------------  -----------------
           H          2.762292060000    -5.112510430000     3.125888590000     1.007825032070
           H         -1.066931820000   -11.097280660000    -2.948295910000     1.007825032070
           H         -2.584935590000    -6.714620250000    -2.795154390000     1.007825032070
           H          4.280295830000    -9.495170840000     2.972747080000     1.007825032070
           H         -0.613066840000    -3.651030260000     0.247085470000     1.007825032070
           H          2.308427080000   -12.558760830000    -0.069492790000     1.007825032070
           C          1.922990980000    -6.399538650000     1.793943470000    12.000000000000
           C         -0.227630740000    -9.810252440000    -1.616350790000    12.000000000000
           C         -1.075310860000    -7.309181000000    -1.532702060000    12.000000000000
           C          2.770671100000    -8.900610090000     1.710294750000    12.000000000000
           C          0.000000000000    -5.625185570000     0.177592680000    12.000000000000
           C          1.695360240000   -10.584605510000     0.000000000000    12.000000000000
           H(Gh)     -8.049469880000     3.788099650000     3.125888590000     1.007825032070
           H(Gh)     -4.220246000000    -2.196670570000    -2.948295910000     1.007825032070
           H(Gh)     -2.702242230000     2.185989840000    -2.795154390000     1.007825032070
           H(Gh)     -9.567473650000    -0.594560750000     2.972747080000     1.007825032070
           H(Gh)     -4.674110980000     5.249579830000     0.247085470000     1.007825032070
           H(Gh)     -7.595604900000    -3.658150750000    -0.069492790000     1.007825032070
           C(Gh)     -7.210168800000     2.501071430000     1.793943470000    12.000000000000
           C(Gh)     -5.059547080000    -0.909642350000    -1.616350790000    12.000000000000
           C(Gh)     -4.211866960000     1.591429080000    -1.532702060000    12.000000000000
           C(Gh)     -8.057848920000     0.000000000000     1.710294750000    12.000000000000
           C(Gh)     -5.287177820000     3.275424510000     0.177592680000    12.000000000000
           C(Gh)     -6.982538060000    -1.683995430000     0.000000000000    12.000000000000
           H(Gh)      2.762292060000    -2.196670570000     9.560406080000     1.007825032070
           H(Gh)     -1.066931820000     3.788099650000     3.486221570000     1.007825032070
           H(Gh)     -2.584935590000    -0.594560750000     3.639363090000     1.007825032070
           H(Gh)      4.280295830000     2.185989840000     9.407264560000     1.007825032070
           H(Gh)     -0.613066840000    -3.658150750000     6.681602950000     1.007825032070
           H(Gh)      2.308427080000     5.249579830000     6.365024690000     1.007825032070
           C(Gh)      1.922990980000    -0.909642350000     8.228460960000    12.000000000000
           C(Gh)     -0.227630740000     2.501071430000     4.818166690000    12.000000000000
           C(Gh)     -1.075310860000     0.000000000000     4.901815420000    12.000000000000
           C(Gh)      2.770671100000     1.591429080000     8.144812230000    12.000000000000
           C(Gh)      0.000000000000    -1.683995430000     6.612110160000    12.000000000000
           C(Gh)      1.695360240000     3.275424510000     6.434517480000    12.000000000000
           H(Gh)      2.762292060000    -2.196670570000    -3.308628890000     1.007825032070
           H(Gh)     -1.066931820000     3.788099650000    -9.382813390000     1.007825032070
           H(Gh)     -2.584935590000    -0.594560750000    -9.229671880000     1.007825032070
           H(Gh)      4.280295830000     2.185989840000    -3.461770410000     1.007825032070
           H(Gh)     -0.613066840000    -3.658150750000    -6.187432010000     1.007825032070
           H(Gh)      2.308427080000     5.249579830000    -6.504010270000     1.007825032070
           C(Gh)      1.922990980000    -0.909642350000    -4.640574010000    12.000000000000
           C(Gh)     -0.227630740000     2.501071430000    -8.050868270000    12.000000000000
           C(Gh)     -1.075310860000     0.000000000000    -7.967219550000    12.000000000000
           C(Gh)      2.770671100000     1.591429080000    -4.724222740000    12.000000000000
           C(Gh)      0.000000000000    -1.683995430000    -6.256924800000    12.000000000000
           C(Gh)      1.695360240000     3.275424510000    -6.434517480000    12.000000000000
           H(Gh)      5.915606250000     3.788099650000     3.125888590000     1.007825032070
           H(Gh)      9.744830120000    -2.196670570000    -2.948295910000     1.007825032070
           H(Gh)     11.262833890000     2.185989840000    -2.795154390000     1.007825032070
           H(Gh)      4.397602470000    -0.594560750000     2.972747080000     1.007825032070
           H(Gh)      9.290965140000     5.249579830000     0.247085470000     1.007825032070
           H(Gh)      6.369471220000    -3.658150750000    -0.069492790000     1.007825032070
           C(Gh)      6.754907320000     2.501071430000     1.793943470000    12.000000000000
           C(Gh)      8.905529040000    -0.909642350000    -1.616350790000    12.000000000000
           C(Gh)      9.753209160000     1.591429080000    -1.532702060000    12.000000000000
           C(Gh)      5.907227200000     0.000000000000     1.710294750000    12.000000000000
           C(Gh)      8.677898300000     3.275424510000     0.177592680000    12.000000000000
           C(Gh)      6.982538060000    -1.683995430000     0.000000000000    12.000000000000

  Running in c1 symmetry.

  Rotational constants: A =      0.00428  B =      0.00387  C =      0.00375 [cm^-1]
  Rotational constants: A =    128.26224  B =    116.04376  C =    112.36674 [MHz]
  Nuclear repulsion =  203.582005635571335

  Charge       = 0
  Multiplicity = 1
  Electrons    = 42
  Nalpha       = 21
  Nbeta        = 21

  ==> Algorithm <==

  SCF Algorithm Type is DF.
  DIIS enabled.
  MOM disabled.
  Fractional occupation disabled.
  Guess Type is SAD.
  Energy threshold   = 1.00e-08
  Density threshold  = 1.00e-06
  Integral threshold = 0.00e+00

  ==> Primary Basis <==

  Basis Set: STO-3G
    Blend: STO-3G
    Number of shells: 120
    Number of basis function: 180
    Number of Cartesian functions: 180
    Spherical Harmonics?: true
    Max angular momentum: 1

   => Loading Basis Set <=

    Name: (STO-3G AUX)
    Role: JKFIT
    Keyword: DF_BASIS_SCF
    atoms 1-6, 13-18, 25-30, 37-42, 49-54  entry H          line    22 file /home/carlosborca/psi4conda/share/psi4/basis/def2-svp-jkfit.gbs 
    atoms 7-12, 19-24, 31-36, 43-48, 55-60 entry C          line   202 file /home/carlosborca/psi4conda/share/psi4/basis/def2-svp-jkfit.gbs 

  ==> Pre-Iterations <==

   -------------------------------------------------------
    Irrep   Nso     Nmo     Nalpha   Nbeta   Ndocc  Nsocc
   -------------------------------------------------------
     A        180     180       0       0       0       0
   -------------------------------------------------------
    Total     180     180      21      21      21       0
   -------------------------------------------------------

  ==> Integral Setup <==

  ==> DFJK: Density-Fitted J/K Matrices <==

    J tasked:                  Yes
    K tasked:                  Yes
    wK tasked:                  No
    OpenMP threads:              4
    Integrals threads:           4
    Memory (MB):               357
    Algorithm:                Disk
    Integral Cache:           NONE
    Schwarz Cutoff:          1E-12
    Fitting Condition:       1E-12

   => Auxiliary Basis Set <=

  Basis Set: (STO-3G AUX)
    Blend: DEF2-SVP-JKFIT
    Number of shells: 930
    Number of basis function: 2790
    Number of Cartesian functions: 3270
    Spherical Harmonics?: true
    Max angular momentum: 4

  Minimum eigenvalue in the overlap matrix is 1.7067532340E-01.
  Using Symmetric Orthogonalization.

  SCF Guess: Superposition of Atomic Densities via on-the-fly atomic UHF.

  ==> Iterations <==

                           Total Energy        Delta E     RMS |[F,P]|

   @DF-RHF iter   0:  -229.66964349426888   -2.29670e+02   4.20466e-02 
   @DF-RHF iter   1:  -227.84613921859733    1.82350e+00   2.15466e-03 
   @DF-RHF iter   2:  -227.88511824287144   -3.89790e-02   7.11337e-04 DIIS
   @DF-RHF iter   3:  -227.89124411667501   -6.12587e-03   1.81056e-04 DIIS
   @DF-RHF iter   4:  -227.89170952855667   -4.65412e-04   5.80300e-05 DIIS
   @DF-RHF iter   5:  -227.89175238817461   -4.28596e-05   1.41875e-05 DIIS
   @DF-RHF iter   6:  -227.89175447557363   -2.08740e-06   2.00702e-06 DIIS
   @DF-RHF iter   7:  -227.89175452500751   -4.94339e-08   3.06768e-07 DIIS
   @DF-RHF iter   8:  -227.89175452589677   -8.89258e-10   1.12759e-07 DIIS

  ==> Post-Iterations <==

    Orbital Energies (a.u.)
    -----------------------

    Doubly Occupied:                                                      

       1A    -11.030355     2A    -11.030125     3A    -11.029984  
       4A    -11.029852     5A    -11.029350     6A    -11.029200  
       7A     -1.091283     8A     -0.956528     9A     -0.954512  
      10A     -0.768184    11A     -0.766464    12A     -0.662375  
      13A     -0.594198    14A     -0.554906    15A     -0.535667  
      16A     -0.532212    17A     -0.457295    18A     -0.438006  
      19A     -0.428247    20A     -0.281795    21A     -0.279741  

    Virtual:                                                              

      22A      0.249241    23A      0.255278    24A      0.255567  
      25A      0.261012    26A      0.266718    27A      0.270575  
      28A      0.378680    29A      0.380604    30A      0.380798  
      31A      0.382324    32A      0.386295    33A      0.387395  
      34A      0.387593    35A      0.389597    36A      0.503432  
      37A      0.566236    38A      0.581649    39A      0.583368  
      40A      0.585030    41A      0.585995    42A      0.588536  
      43A      0.591579    44A      0.594980    45A      0.595885  
      46A      0.639428    47A      0.654774    48A      0.714016  
      49A      0.725026    50A      0.727002    51A      0.730676  
      52A      0.732030    53A      0.739353    54A      0.743489  
      55A      0.785982    56A      0.786136    57A      0.789025  
      58A      0.789724    59A      0.880858    60A      0.884365  
      61A      0.892641    62A      0.900063    63A      0.944365  
      64A      0.945776    65A      0.947076    66A      0.948594  
      67A      0.953519    68A      0.959521    69A      0.961803  
      70A      0.964788    71A      1.085639    72A      1.086451  
      73A      1.087667    74A      1.088338    75A      1.089028  
      76A      1.147468    77A      1.153081    78A      1.157155  
      79A      1.159586    80A      1.160158    81A      1.165202  
      82A      1.166140    83A      1.166564    84A      1.168972  
      85A      1.307266    86A      1.307333    87A      1.308643  
      88A      1.308933    89A      1.317941    90A      1.322734  
      91A      1.323510    92A      1.325603    93A      1.326284  
      94A      1.326867    95A      1.326932    96A      1.329732  
      97A      1.510386    98A      1.513240    99A      1.513536  
     100A      1.516405   101A      1.768913   102A      1.780414  
     103A      1.781265   104A      1.792451   105A      1.820627  
     106A      1.821027   107A      1.821661   108A      1.822310  
     109A      1.829280   110A      1.829346   111A      1.830084  
     112A      1.830626   113A      1.937728   114A      1.937921  
     115A      1.939156   116A      1.939557   117A      1.954610  
     118A      1.956201   119A      1.957029   120A      1.958496  
     121A      2.106687   122A      2.109471   123A      2.110158  
     124A      2.112469   125A      2.123534   126A      2.125148  
     127A      2.125669   128A      2.127417   129A      2.168391  
     130A      2.169085   131A      2.169716   132A      2.170472  
     133A      2.782782   134A      2.783641   135A      2.784052  
     136A      2.785156   137A      2.786295   138A      2.788822  
     139A      2.789023   140A      2.791035   141A      2.806796  
     142A      2.807157   143A      2.808202   144A      2.808634  
     145A      2.825636   146A      2.825705   147A      2.827018  
     148A      2.827058   149A      3.238187   150A      3.240165  
     151A      3.240467   152A      3.242390   153A      3.366730  
     154A      3.366818   155A      3.368000   156A      3.368214  
     157A     17.068920   158A     17.077842   159A     17.077964  
     160A     17.086880   161A     17.329006   162A     17.330703  
     163A     17.330981   164A     17.331777   165A     17.332674  
     166A     17.333537   167A     17.333797   168A     17.335884  
     169A     17.794317   170A     17.794766   171A     17.795444  
     172A     17.795934   173A     17.797445   174A     17.799213  
     175A     17.799579   176A     17.801891   177A     18.062389  
     178A     18.063698   179A     18.064247   180A     18.065595  

    Final Occupation by Irrep:
              A 
    DOCC [    21 ]

  Energy converged.

  @DF-RHF Final Energy:  -227.89175452589677

   => Energetics <=

    Nuclear Repulsion Energy =            203.5820056355713348
    One-Electron Energy =                -711.9869623916935097
    Two-Electron Energy =                 280.5132022302253745
    DFT Exchange-Correlation Energy =       0.0000000000000000
    Empirical Dispersion Energy =           0.0000000000000000
    PCM Polarization Energy =               0.0000000000000000
    EFP Energy =                            0.0000000000000000
    Total Energy =                       -227.8917545258967721



Properties will be evaluated at   0.000000,   0.000000,   0.000000 Bohr

Properties computed using the SCF density matrix

  Nuclear Dipole Moment: (a.u.)
     X:    35.6026      Y:  -340.4056      Z:     3.7294

  Electronic Dipole Moment: (a.u.)
     X:   -35.6055      Y:   340.3884      Z:    -3.7265

  Dipole Moment: (a.u.)
     X:    -0.0029      Y:    -0.0172      Z:     0.0029     Total:     0.0177

  Dipole Moment: (Debye)
     X:    -0.0074      Y:    -0.0437      Z:     0.0074     Total:     0.0449


*** tstop() called on Magnesium at Tue Mar 20 23:02:21 2018
Module time:
	user time   =     103.61 seconds =       1.73 minutes
	system time =       7.97 seconds =       0.13 minutes
	total time  =         55 seconds =       0.92 minutes
Total time:
	user time   =     103.61 seconds =       1.73 minutes
	system time =       7.97 seconds =       0.13 minutes
	total time  =         55 seconds =       0.92 minutes

       N-Body: Complex Energy (fragments = (1,), basis = (1, 2, 3, 4, 5):  -227.89175452589677)

       N-Body: Computing complex (2/5) with fragments (4,) in the basis of fragments (1, 2, 3, 4, 5).


*** tstart() called on Magnesium
*** at Tue Mar 20 23:02:21 2018

   => Loading Basis Set <=

    Name: STO-3G
    Role: ORBITAL
    Keyword: BASIS
    atoms 1-6, 13-18, 25-30, 37-42, 49-54  entry H          line    18 file /home/carlosborca/psi4conda/share/psi4/basis/sto-3g.gbs 
    atoms 7-12, 19-24, 31-36, 43-48, 55-60 entry C          line    60 file /home/carlosborca/psi4conda/share/psi4/basis/sto-3g.gbs 

    There are an even number of electrons - assuming singlet.
    Specify the multiplicity in the molecule input block.


         ---------------------------------------------------------
                                   SCF
            by Justin Turney, Rob Parrish, and Andy Simmonett
                              RHF Reference
                        4 Threads,    476 MiB Core
         ---------------------------------------------------------

  ==> Geometry <==

    Molecular point group: c1
    Full point group: C1

    Geometry (in Bohr), charge = 0, multiplicity = 1:

       Center              X                  Y                   Z               Mass       
    ------------   -----------------  -----------------  -----------------  -----------------
           H(Gh)      2.762292060000    -5.112510430000     3.125888590000     1.007825032070
           H(Gh)     -1.066931820000   -11.097280660000    -2.948295910000     1.007825032070
           H(Gh)     -2.584935590000    -6.714620250000    -2.795154390000     1.007825032070
           H(Gh)      4.280295830000    -9.495170840000     2.972747080000     1.007825032070
           H(Gh)     -0.613066840000    -3.651030260000     0.247085470000     1.007825032070
           H(Gh)      2.308427080000   -12.558760830000    -0.069492790000     1.007825032070
           C(Gh)      1.922990980000    -6.399538650000     1.793943470000    12.000000000000
           C(Gh)     -0.227630740000    -9.810252440000    -1.616350790000    12.000000000000
           C(Gh)     -1.075310860000    -7.309181000000    -1.532702060000    12.000000000000
           C(Gh)      2.770671100000    -8.900610090000     1.710294750000    12.000000000000
           C(Gh)      0.000000000000    -5.625185570000     0.177592680000    12.000000000000
           C(Gh)      1.695360240000   -10.584605510000     0.000000000000    12.000000000000
           H(Gh)     -8.049469880000     3.788099650000     3.125888590000     1.007825032070
           H(Gh)     -4.220246000000    -2.196670570000    -2.948295910000     1.007825032070
           H(Gh)     -2.702242230000     2.185989840000    -2.795154390000     1.007825032070
           H(Gh)     -9.567473650000    -0.594560750000     2.972747080000     1.007825032070
           H(Gh)     -4.674110980000     5.249579830000     0.247085470000     1.007825032070
           H(Gh)     -7.595604900000    -3.658150750000    -0.069492790000     1.007825032070
           C(Gh)     -7.210168800000     2.501071430000     1.793943470000    12.000000000000
           C(Gh)     -5.059547080000    -0.909642350000    -1.616350790000    12.000000000000
           C(Gh)     -4.211866960000     1.591429080000    -1.532702060000    12.000000000000
           C(Gh)     -8.057848920000     0.000000000000     1.710294750000    12.000000000000
           C(Gh)     -5.287177820000     3.275424510000     0.177592680000    12.000000000000
           C(Gh)     -6.982538060000    -1.683995430000     0.000000000000    12.000000000000
           H(Gh)      2.762292060000    -2.196670570000     9.560406080000     1.007825032070
           H(Gh)     -1.066931820000     3.788099650000     3.486221570000     1.007825032070
           H(Gh)     -2.584935590000    -0.594560750000     3.639363090000     1.007825032070
           H(Gh)      4.280295830000     2.185989840000     9.407264560000     1.007825032070
           H(Gh)     -0.613066840000    -3.658150750000     6.681602950000     1.007825032070
           H(Gh)      2.308427080000     5.249579830000     6.365024690000     1.007825032070
           C(Gh)      1.922990980000    -0.909642350000     8.228460960000    12.000000000000
           C(Gh)     -0.227630740000     2.501071430000     4.818166690000    12.000000000000
           C(Gh)     -1.075310860000     0.000000000000     4.901815420000    12.000000000000
           C(Gh)      2.770671100000     1.591429080000     8.144812230000    12.000000000000
           C(Gh)      0.000000000000    -1.683995430000     6.612110160000    12.000000000000
           C(Gh)      1.695360240000     3.275424510000     6.434517480000    12.000000000000
           H          2.762292060000    -2.196670570000    -3.308628890000     1.007825032070
           H         -1.066931820000     3.788099650000    -9.382813390000     1.007825032070
           H         -2.584935590000    -0.594560750000    -9.229671880000     1.007825032070
           H          4.280295830000     2.185989840000    -3.461770410000     1.007825032070
           H         -0.613066840000    -3.658150750000    -6.187432010000     1.007825032070
           H          2.308427080000     5.249579830000    -6.504010270000     1.007825032070
           C          1.922990980000    -0.909642350000    -4.640574010000    12.000000000000
           C         -0.227630740000     2.501071430000    -8.050868270000    12.000000000000
           C         -1.075310860000     0.000000000000    -7.967219550000    12.000000000000
           C          2.770671100000     1.591429080000    -4.724222740000    12.000000000000
           C          0.000000000000    -1.683995430000    -6.256924800000    12.000000000000
           C          1.695360240000     3.275424510000    -6.434517480000    12.000000000000
           H(Gh)      5.915606250000     3.788099650000     3.125888590000     1.007825032070
           H(Gh)      9.744830120000    -2.196670570000    -2.948295910000     1.007825032070
           H(Gh)     11.262833890000     2.185989840000    -2.795154390000     1.007825032070
           H(Gh)      4.397602470000    -0.594560750000     2.972747080000     1.007825032070
           H(Gh)      9.290965140000     5.249579830000     0.247085470000     1.007825032070
           H(Gh)      6.369471220000    -3.658150750000    -0.069492790000     1.007825032070
           C(Gh)      6.754907320000     2.501071430000     1.793943470000    12.000000000000
           C(Gh)      8.905529040000    -0.909642350000    -1.616350790000    12.000000000000
           C(Gh)      9.753209160000     1.591429080000    -1.532702060000    12.000000000000
           C(Gh)      5.907227200000     0.000000000000     1.710294750000    12.000000000000
           C(Gh)      8.677898300000     3.275424510000     0.177592680000    12.000000000000
           C(Gh)      6.982538060000    -1.683995430000     0.000000000000    12.000000000000

  Running in c1 symmetry.

  Rotational constants: A =      0.00428  B =      0.00387  C =      0.00375 [cm^-1]
  Rotational constants: A =    128.26224  B =    116.04376  C =    112.36674 [MHz]
  Nuclear repulsion =  203.582005708156885

  Charge       = 0
  Multiplicity = 1
  Electrons    = 42
  Nalpha       = 21
  Nbeta        = 21

  ==> Algorithm <==

  SCF Algorithm Type is DF.
  DIIS enabled.
  MOM disabled.
  Fractional occupation disabled.
  Guess Type is SAD.
  Energy threshold   = 1.00e-08
  Density threshold  = 1.00e-06
  Integral threshold = 0.00e+00

  ==> Primary Basis <==

  Basis Set: STO-3G
    Blend: STO-3G
    Number of shells: 120
    Number of basis function: 180
    Number of Cartesian functions: 180
    Spherical Harmonics?: true
    Max angular momentum: 1

   => Loading Basis Set <=

    Name: (STO-3G AUX)
    Role: JKFIT
    Keyword: DF_BASIS_SCF
    atoms 1-6, 13-18, 25-30, 37-42, 49-54  entry H          line    22 file /home/carlosborca/psi4conda/share/psi4/basis/def2-svp-jkfit.gbs 
    atoms 7-12, 19-24, 31-36, 43-48, 55-60 entry C          line   202 file /home/carlosborca/psi4conda/share/psi4/basis/def2-svp-jkfit.gbs 

  ==> Pre-Iterations <==

   -------------------------------------------------------
    Irrep   Nso     Nmo     Nalpha   Nbeta   Ndocc  Nsocc
   -------------------------------------------------------
     A        180     180       0       0       0       0
   -------------------------------------------------------
    Total     180     180      21      21      21       0
   -------------------------------------------------------

  ==> Integral Setup <==

  ==> DFJK: Density-Fitted J/K Matrices <==

    J tasked:                  Yes
    K tasked:                  Yes
    wK tasked:                  No
    OpenMP threads:              4
    Integrals threads:           4
    Memory (MB):               357
    Algorithm:                Disk
    Integral Cache:           NONE
    Schwarz Cutoff:          1E-12
    Fitting Condition:       1E-12

   => Auxiliary Basis Set <=

  Basis Set: (STO-3G AUX)
    Blend: DEF2-SVP-JKFIT
    Number of shells: 930
    Number of basis function: 2790
    Number of Cartesian functions: 3270
    Spherical Harmonics?: true
    Max angular momentum: 4

  Minimum eigenvalue in the overlap matrix is 1.7067532340E-01.
  Using Symmetric Orthogonalization.

  SCF Guess: Superposition of Atomic Densities via on-the-fly atomic UHF.

  ==> Iterations <==

                           Total Energy        Delta E     RMS |[F,P]|

   @DF-RHF iter   0:  -227.92615938291092   -2.27926e+02   3.93164e-02 
   @DF-RHF iter   1:  -227.73928731823645    1.86872e-01   4.20639e-03 
   @DF-RHF iter   2:  -227.87468480057629   -1.35397e-01   1.28918e-03 DIIS
   @DF-RHF iter   3:  -227.89036362858073   -1.56788e-02   3.93218e-04 DIIS
   @DF-RHF iter   4:  -227.89171330659326   -1.34968e-03   1.28454e-04 DIIS
   @DF-RHF iter   5:  -227.89196432274093   -2.51016e-04   2.37216e-05 DIIS
   @DF-RHF iter   6:  -227.89197281766735   -8.49493e-06   2.18052e-06 DIIS
   @DF-RHF iter   7:  -227.89197286612000   -4.84526e-08   3.74648e-07 DIIS
   @DF-RHF iter   8:  -227.89197286754944   -1.42944e-09   1.44226e-07 DIIS

  ==> Post-Iterations <==

    Orbital Energies (a.u.)
    -----------------------

    Doubly Occupied:                                                      

       1A    -11.030365     2A    -11.030231     3A    -11.030069  
       4A    -11.029945     5A    -11.029437     6A    -11.029214  
       7A     -1.091297     8A     -0.956543     9A     -0.954535  
      10A     -0.768216    11A     -0.766490    12A     -0.662402  
      13A     -0.594230    14A     -0.554943    15A     -0.535698  
      16A     -0.532236    17A     -0.457452    18A     -0.438031  
      19A     -0.428291    20A     -0.281759    21A     -0.279654  

    Virtual:                                                              

      22A      0.249701    23A      0.255606    24A      0.256972  
      25A      0.260833    26A      0.266434    27A      0.270570  
      28A      0.375778    29A      0.380056    30A      0.381099  
      31A      0.382457    32A      0.385417    33A      0.388815  
      34A      0.390314    35A      0.391480    36A      0.503582  
      37A      0.571581    38A      0.580144    39A      0.581708  
      40A      0.582996    41A      0.586517    42A      0.588909  
      43A      0.591815    44A      0.593802    45A      0.600122  
      46A      0.638238    47A      0.655703    48A      0.714367  
      49A      0.723672    50A      0.728119    51A      0.731026  
      52A      0.733460    53A      0.738328    54A      0.742778  
      55A      0.772887    56A      0.787036    57A      0.789160  
      58A      0.801167    59A      0.881472    60A      0.885017  
      61A      0.893698    62A      0.899656    63A      0.931806  
      64A      0.938022    65A      0.945995    66A      0.946873  
      67A      0.957298    68A      0.961532    69A      0.974938  
      70A      0.979388    71A      1.081033    72A      1.088457  
      73A      1.088886    74A      1.089733    75A      1.092441  
      76A      1.146945    77A      1.149849    78A      1.154086  
      79A      1.156362    80A      1.158595    81A      1.163132  
      82A      1.164721    83A      1.169502    84A      1.174480  
      85A      1.306412    86A      1.308087    87A      1.309262  
      88A      1.312179    89A      1.319282    90A      1.321652  
      91A      1.322379    92A      1.324790    93A      1.325286  
      94A      1.328374    95A      1.328965    96A      1.330040  
      97A      1.504247    98A      1.513075    99A      1.515720  
     100A      1.519424   101A      1.763242   102A      1.780465  
     103A      1.783489   104A      1.794646   105A      1.819994  
     106A      1.821075   107A      1.821775   108A      1.825588  
     109A      1.826711   110A      1.827088   111A      1.831986  
     112A      1.833899   113A      1.935823   114A      1.938166  
     115A      1.939298   116A      1.941294   117A      1.948391  
     118A      1.957392   119A      1.957916   120A      1.965383  
     121A      2.102129   122A      2.104006   123A      2.110842  
     124A      2.112213   125A      2.119271   126A      2.125913  
     127A      2.134416   128A      2.139245   129A      2.165717  
     130A      2.168136   131A      2.171703   132A      2.173233  
     133A      2.778835   134A      2.780505   135A      2.784035  
     136A      2.785566   137A      2.787614   138A      2.789403  
     139A      2.792271   140A      2.793638   141A      2.806689  
     142A      2.808305   143A      2.808757   144A      2.811521  
     145A      2.824757   146A      2.825691   147A      2.826788  
     148A      2.828884   149A      3.235456   150A      3.240125  
     151A      3.242574   152A      3.244688   153A      3.365967  
     154A      3.366740   155A      3.368066   156A      3.370411  
     157A     17.071931   158A     17.076178   159A     17.078775  
     160A     17.085463   161A     17.329024   162A     17.329604  
     163A     17.330805   164A     17.330975   165A     17.332477  
     166A     17.334406   167A     17.335652   168A     17.337647  
     169A     17.792606   170A     17.794305   171A     17.794989  
     172A     17.797292   173A     17.798314   174A     17.799436  
     175A     17.801066   176A     17.803013   177A     18.060997  
     178A     18.063669   179A     18.065135   180A     18.067418  

    Final Occupation by Irrep:
              A 
    DOCC [    21 ]

  Energy converged.

  @DF-RHF Final Energy:  -227.89197286754944

   => Energetics <=

    Nuclear Repulsion Energy =            203.5820057081568848
    One-Electron Energy =                -711.9858780581565725
    Two-Electron Energy =                 280.5118994824502465
    DFT Exchange-Correlation Energy =       0.0000000000000000
    Empirical Dispersion Energy =           0.0000000000000000
    PCM Polarization Energy =               0.0000000000000000
    EFP Energy =                            0.0000000000000000
    Total Energy =                       -227.8919728675494412



Properties will be evaluated at   0.000000,   0.000000,   0.000000 Bohr

Properties computed using the SCF density matrix

  Nuclear Dipole Moment: (a.u.)
     X:    35.6026      Y:    33.4200      Z:  -266.5203

  Electronic Dipole Moment: (a.u.)
     X:   -35.5948      Y:   -33.4151      Z:   266.5040

  Dipole Moment: (a.u.)
     X:     0.0077      Y:     0.0049      Z:    -0.0163     Total:     0.0187

  Dipole Moment: (Debye)
     X:     0.0196      Y:     0.0125      Z:    -0.0415     Total:     0.0475


*** tstop() called on Magnesium at Tue Mar 20 23:03:16 2018
Module time:
	user time   =     102.47 seconds =       1.71 minutes
	system time =       7.34 seconds =       0.12 minutes
	total time  =         55 seconds =       0.92 minutes
Total time:
	user time   =     206.08 seconds =       3.43 minutes
	system time =      15.36 seconds =       0.26 minutes
	total time  =        110 seconds =       1.83 minutes

       N-Body: Complex Energy (fragments = (4,), basis = (1, 2, 3, 4, 5):  -227.89197286754944)

       N-Body: Computing complex (3/5) with fragments (2,) in the basis of fragments (1, 2, 3, 4, 5).


*** tstart() called on Magnesium
*** at Tue Mar 20 23:03:16 2018

   => Loading Basis Set <=

    Name: STO-3G
    Role: ORBITAL
    Keyword: BASIS
    atoms 1-6, 13-18, 25-30, 37-42, 49-54  entry H          line    18 file /home/carlosborca/psi4conda/share/psi4/basis/sto-3g.gbs 
    atoms 7-12, 19-24, 31-36, 43-48, 55-60 entry C          line    60 file /home/carlosborca/psi4conda/share/psi4/basis/sto-3g.gbs 

    There are an even number of electrons - assuming singlet.
    Specify the multiplicity in the molecule input block.


         ---------------------------------------------------------
                                   SCF
            by Justin Turney, Rob Parrish, and Andy Simmonett
                              RHF Reference
                        4 Threads,    476 MiB Core
         ---------------------------------------------------------

  ==> Geometry <==

    Molecular point group: c1
    Full point group: C1

    Geometry (in Bohr), charge = 0, multiplicity = 1:

       Center              X                  Y                   Z               Mass       
    ------------   -----------------  -----------------  -----------------  -----------------
           H(Gh)      2.762292060000    -5.112510430000     3.125888590000     1.007825032070
           H(Gh)     -1.066931820000   -11.097280660000    -2.948295910000     1.007825032070
           H(Gh)     -2.584935590000    -6.714620250000    -2.795154390000     1.007825032070
           H(Gh)      4.280295830000    -9.495170840000     2.972747080000     1.007825032070
           H(Gh)     -0.613066840000    -3.651030260000     0.247085470000     1.007825032070
           H(Gh)      2.308427080000   -12.558760830000    -0.069492790000     1.007825032070
           C(Gh)      1.922990980000    -6.399538650000     1.793943470000    12.000000000000
           C(Gh)     -0.227630740000    -9.810252440000    -1.616350790000    12.000000000000
           C(Gh)     -1.075310860000    -7.309181000000    -1.532702060000    12.000000000000
           C(Gh)      2.770671100000    -8.900610090000     1.710294750000    12.000000000000
           C(Gh)      0.000000000000    -5.625185570000     0.177592680000    12.000000000000
           C(Gh)      1.695360240000   -10.584605510000     0.000000000000    12.000000000000
           H         -8.049469880000     3.788099650000     3.125888590000     1.007825032070
           H         -4.220246000000    -2.196670570000    -2.948295910000     1.007825032070
           H         -2.702242230000     2.185989840000    -2.795154390000     1.007825032070
           H         -9.567473650000    -0.594560750000     2.972747080000     1.007825032070
           H         -4.674110980000     5.249579830000     0.247085470000     1.007825032070
           H         -7.595604900000    -3.658150750000    -0.069492790000     1.007825032070
           C         -7.210168800000     2.501071430000     1.793943470000    12.000000000000
           C         -5.059547080000    -0.909642350000    -1.616350790000    12.000000000000
           C         -4.211866960000     1.591429080000    -1.532702060000    12.000000000000
           C         -8.057848920000     0.000000000000     1.710294750000    12.000000000000
           C         -5.287177820000     3.275424510000     0.177592680000    12.000000000000
           C         -6.982538060000    -1.683995430000     0.000000000000    12.000000000000
           H(Gh)      2.762292060000    -2.196670570000     9.560406080000     1.007825032070
           H(Gh)     -1.066931820000     3.788099650000     3.486221570000     1.007825032070
           H(Gh)     -2.584935590000    -0.594560750000     3.639363090000     1.007825032070
           H(Gh)      4.280295830000     2.185989840000     9.407264560000     1.007825032070
           H(Gh)     -0.613066840000    -3.658150750000     6.681602950000     1.007825032070
           H(Gh)      2.308427080000     5.249579830000     6.365024690000     1.007825032070
           C(Gh)      1.922990980000    -0.909642350000     8.228460960000    12.000000000000
           C(Gh)     -0.227630740000     2.501071430000     4.818166690000    12.000000000000
           C(Gh)     -1.075310860000     0.000000000000     4.901815420000    12.000000000000
           C(Gh)      2.770671100000     1.591429080000     8.144812230000    12.000000000000
           C(Gh)      0.000000000000    -1.683995430000     6.612110160000    12.000000000000
           C(Gh)      1.695360240000     3.275424510000     6.434517480000    12.000000000000
           H(Gh)      2.762292060000    -2.196670570000    -3.308628890000     1.007825032070
           H(Gh)     -1.066931820000     3.788099650000    -9.382813390000     1.007825032070
           H(Gh)     -2.584935590000    -0.594560750000    -9.229671880000     1.007825032070
           H(Gh)      4.280295830000     2.185989840000    -3.461770410000     1.007825032070
           H(Gh)     -0.613066840000    -3.658150750000    -6.187432010000     1.007825032070
           H(Gh)      2.308427080000     5.249579830000    -6.504010270000     1.007825032070
           C(Gh)      1.922990980000    -0.909642350000    -4.640574010000    12.000000000000
           C(Gh)     -0.227630740000     2.501071430000    -8.050868270000    12.000000000000
           C(Gh)     -1.075310860000     0.000000000000    -7.967219550000    12.000000000000
           C(Gh)      2.770671100000     1.591429080000    -4.724222740000    12.000000000000
           C(Gh)      0.000000000000    -1.683995430000    -6.256924800000    12.000000000000
           C(Gh)      1.695360240000     3.275424510000    -6.434517480000    12.000000000000
           H(Gh)      5.915606250000     3.788099650000     3.125888590000     1.007825032070
           H(Gh)      9.744830120000    -2.196670570000    -2.948295910000     1.007825032070
           H(Gh)     11.262833890000     2.185989840000    -2.795154390000     1.007825032070
           H(Gh)      4.397602470000    -0.594560750000     2.972747080000     1.007825032070
           H(Gh)      9.290965140000     5.249579830000     0.247085470000     1.007825032070
           H(Gh)      6.369471220000    -3.658150750000    -0.069492790000     1.007825032070
           C(Gh)      6.754907320000     2.501071430000     1.793943470000    12.000000000000
           C(Gh)      8.905529040000    -0.909642350000    -1.616350790000    12.000000000000
           C(Gh)      9.753209160000     1.591429080000    -1.532702060000    12.000000000000
           C(Gh)      5.907227200000     0.000000000000     1.710294750000    12.000000000000
           C(Gh)      8.677898300000     3.275424510000     0.177592680000    12.000000000000
           C(Gh)      6.982538060000    -1.683995430000     0.000000000000    12.000000000000

  Running in c1 symmetry.

  Rotational constants: A =      0.00428  B =      0.00387  C =      0.00375 [cm^-1]
  Rotational constants: A =    128.26224  B =    116.04376  C =    112.36674 [MHz]
  Nuclear repulsion =  203.582005708156913

  Charge       = 0
  Multiplicity = 1
  Electrons    = 42
  Nalpha       = 21
  Nbeta        = 21

  ==> Algorithm <==

  SCF Algorithm Type is DF.
  DIIS enabled.
  MOM disabled.
  Fractional occupation disabled.
  Guess Type is SAD.
  Energy threshold   = 1.00e-08
  Density threshold  = 1.00e-06
  Integral threshold = 0.00e+00

  ==> Primary Basis <==

  Basis Set: STO-3G
    Blend: STO-3G
    Number of shells: 120
    Number of basis function: 180
    Number of Cartesian functions: 180
    Spherical Harmonics?: true
    Max angular momentum: 1

   => Loading Basis Set <=

    Name: (STO-3G AUX)
    Role: JKFIT
    Keyword: DF_BASIS_SCF
    atoms 1-6, 13-18, 25-30, 37-42, 49-54  entry H          line    22 file /home/carlosborca/psi4conda/share/psi4/basis/def2-svp-jkfit.gbs 
    atoms 7-12, 19-24, 31-36, 43-48, 55-60 entry C          line   202 file /home/carlosborca/psi4conda/share/psi4/basis/def2-svp-jkfit.gbs 

  ==> Pre-Iterations <==

   -------------------------------------------------------
    Irrep   Nso     Nmo     Nalpha   Nbeta   Ndocc  Nsocc
   -------------------------------------------------------
     A        180     180       0       0       0       0
   -------------------------------------------------------
    Total     180     180      21      21      21       0
   -------------------------------------------------------

  ==> Integral Setup <==

  ==> DFJK: Density-Fitted J/K Matrices <==

    J tasked:                  Yes
    K tasked:                  Yes
    wK tasked:                  No
    OpenMP threads:              4
    Integrals threads:           4
    Memory (MB):               357
    Algorithm:                Disk
    Integral Cache:           NONE
    Schwarz Cutoff:          1E-12
    Fitting Condition:       1E-12

   => Auxiliary Basis Set <=

  Basis Set: (STO-3G AUX)
    Blend: DEF2-SVP-JKFIT
    Number of shells: 930
    Number of basis function: 2790
    Number of Cartesian functions: 3270
    Spherical Harmonics?: true
    Max angular momentum: 4

  Minimum eigenvalue in the overlap matrix is 1.7067532340E-01.
  Using Symmetric Orthogonalization.

  SCF Guess: Superposition of Atomic Densities via on-the-fly atomic UHF.

  ==> Iterations <==

                           Total Energy        Delta E     RMS |[F,P]|

   @DF-RHF iter   0:  -227.75553513932707   -2.27756e+02   3.89811e-02 
   @DF-RHF iter   1:  -227.75913769080677   -3.60255e-03   4.26632e-03 
   @DF-RHF iter   2:  -227.88284436693604   -1.23707e-01   1.13829e-03 DIIS
   @DF-RHF iter   3:  -227.89168145196632   -8.83709e-03   2.93581e-04 DIIS
   @DF-RHF iter   4:  -227.89212212301823   -4.40671e-04   3.11950e-05 DIIS
   @DF-RHF iter   5:  -227.89213000956687   -7.88655e-06   9.29979e-06 DIIS
   @DF-RHF iter   6:  -227.89213128914082   -1.27957e-06   2.50901e-06 DIIS
   @DF-RHF iter   7:  -227.89213138947247   -1.00332e-07   3.69729e-07 DIIS
   @DF-RHF iter   8:  -227.89213139061343   -1.14096e-09   1.13584e-07 DIIS

  ==> Post-Iterations <==

    Orbital Energies (a.u.)
    -----------------------

    Doubly Occupied:                                                      

       1A    -11.030459     2A    -11.030345     3A    -11.030153  
       4A    -11.029940     5A    -11.029432     6A    -11.029418  
       7A     -1.091357     8A     -0.956601     9A     -0.954589  
      10A     -0.768268    11A     -0.766542    12A     -0.662456  
      13A     -0.594275    14A     -0.555003    15A     -0.535752  
      16A     -0.532291    17A     -0.457502    18A     -0.438083  
      19A     -0.428347    20A     -0.281806    21A     -0.279734  

    Virtual:                                                              

      22A      0.249960    23A      0.255863    24A      0.257498  
      25A      0.260968    26A      0.266418    27A      0.270514  
      28A      0.375747    29A      0.379585    30A      0.382447  
      31A      0.383613    32A      0.386293    33A      0.388072  
      34A      0.389792    35A      0.392760    36A      0.503468  
      37A      0.568745    38A      0.580738    39A      0.584360  
      40A      0.585500    41A      0.586510    42A      0.587163  
      43A      0.591770    44A      0.595571    45A      0.599842  
      46A      0.638098    47A      0.655133    48A      0.714688  
      49A      0.724503    50A      0.727104    51A      0.731611  
      52A      0.733054    53A      0.739909    54A      0.741961  
      55A      0.774554    56A      0.786501    57A      0.789463  
      58A      0.801441    59A      0.881530    60A      0.884310  
      61A      0.893645    62A      0.899440    63A      0.931736  
      64A      0.943887    65A      0.946919    66A      0.948788  
      67A      0.955067    68A      0.961588    69A      0.971709  
      70A      0.979157    71A      1.080949    72A      1.088141  
      73A      1.088459    74A      1.091471    75A      1.092586  
      76A      1.145945    77A      1.149477    78A      1.152938  
      79A      1.157123    80A      1.158756    81A      1.163018  
      82A      1.165447    83A      1.172264    84A      1.174830  
      85A      1.305868    86A      1.308363    87A      1.310219  
      88A      1.312506    89A      1.318912    90A      1.322097  
      91A      1.323440    92A      1.324353    93A      1.326244  
      94A      1.326317    95A      1.329391    96A      1.331325  
      97A      1.504583    98A      1.512943    99A      1.515443  
     100A      1.520891   101A      1.765242   102A      1.780747  
     103A      1.787570   104A      1.790507   105A      1.820002  
     106A      1.821260   107A      1.822625   108A      1.824397  
     109A      1.826650   110A      1.828792   111A      1.830323  
     112A      1.835851   113A      1.936373   114A      1.938139  
     115A      1.939872   116A      1.941100   117A      1.951895  
     118A      1.955605   119A      1.959401   120A      1.964062  
     121A      2.102596   122A      2.105643   123A      2.111064  
     124A      2.115696   125A      2.121245   126A      2.126398  
     127A      2.129142   128A      2.137298   129A      2.165780  
     130A      2.168592   131A      2.171554   132A      2.173989  
     133A      2.779806   134A      2.781248   135A      2.783712  
     136A      2.785891   137A      2.787601   138A      2.790439  
     139A      2.791836   140A      2.794737   141A      2.806467  
     142A      2.807869   143A      2.809952   144A      2.811063  
     145A      2.824715   146A      2.826710   147A      2.827055  
     148A      2.828928   149A      3.235839   150A      3.240447  
     151A      3.242621   152A      3.245193   153A      3.365976  
     154A      3.367796   155A      3.368155   156A      3.370454  
     157A     17.071788   158A     17.077407   159A     17.078748  
     160A     17.085606   161A     17.328614   162A     17.330180  
     163A     17.330957   164A     17.332187   165A     17.332677  
     166A     17.334339   167A     17.335629   168A     17.338458  
     169A     17.793734   170A     17.794108   171A     17.795144  
     172A     17.797087   173A     17.799002   174A     17.800494  
     175A     17.801064   176A     17.802852   177A     18.061529  
     178A     18.063851   179A     18.065717   180A     18.067341  

    Final Occupation by Irrep:
              A 
    DOCC [    21 ]

  Energy converged.

  @DF-RHF Final Energy:  -227.89213139061343

   => Energetics <=

    Nuclear Repulsion Energy =            203.5820057081569132
    One-Electron Energy =                -711.9835706413166463
    Two-Electron Energy =                 280.5094335425463328
    DFT Exchange-Correlation Energy =       0.0000000000000000
    Empirical Dispersion Energy =           0.0000000000000000
    PCM Polarization Energy =               0.0000000000000000
    EFP Energy =                            0.0000000000000000
    Total Energy =                       -227.8921313906134287



Properties will be evaluated at   0.000000,   0.000000,   0.000000 Bohr

Properties computed using the SCF density matrix

  Nuclear Dipole Moment: (a.u.)
     X:  -257.6640      Y:    33.4200      Z:     3.7294

  Electronic Dipole Moment: (a.u.)
     X:   257.6442      Y:   -33.4150      Z:    -3.7344

  Dipole Moment: (a.u.)
     X:    -0.0199      Y:     0.0050      Z:    -0.0050     Total:     0.0211

  Dipole Moment: (Debye)
     X:    -0.0505      Y:     0.0128      Z:    -0.0127     Total:     0.0536


*** tstop() called on Magnesium at Tue Mar 20 23:04:11 2018
Module time:
	user time   =     102.20 seconds =       1.70 minutes
	system time =       7.44 seconds =       0.12 minutes
	total time  =         55 seconds =       0.92 minutes
Total time:
	user time   =     308.33 seconds =       5.14 minutes
	system time =      22.85 seconds =       0.38 minutes
	total time  =        165 seconds =       2.75 minutes

       N-Body: Complex Energy (fragments = (2,), basis = (1, 2, 3, 4, 5):  -227.89213139061343)

       N-Body: Computing complex (4/5) with fragments (3,) in the basis of fragments (1, 2, 3, 4, 5).


*** tstart() called on Magnesium
*** at Tue Mar 20 23:04:11 2018

   => Loading Basis Set <=

    Name: STO-3G
    Role: ORBITAL
    Keyword: BASIS
    atoms 1-6, 13-18, 25-30, 37-42, 49-54  entry H          line    18 file /home/carlosborca/psi4conda/share/psi4/basis/sto-3g.gbs 
    atoms 7-12, 19-24, 31-36, 43-48, 55-60 entry C          line    60 file /home/carlosborca/psi4conda/share/psi4/basis/sto-3g.gbs 

    There are an even number of electrons - assuming singlet.
    Specify the multiplicity in the molecule input block.


         ---------------------------------------------------------
                                   SCF
            by Justin Turney, Rob Parrish, and Andy Simmonett
                              RHF Reference
                        4 Threads,    476 MiB Core
         ---------------------------------------------------------

  ==> Geometry <==

    Molecular point group: c1
    Full point group: C1

    Geometry (in Bohr), charge = 0, multiplicity = 1:

       Center              X                  Y                   Z               Mass       
    ------------   -----------------  -----------------  -----------------  -----------------
           H(Gh)      2.762292060000    -5.112510430000     3.125888590000     1.007825032070
           H(Gh)     -1.066931820000   -11.097280660000    -2.948295910000     1.007825032070
           H(Gh)     -2.584935590000    -6.714620250000    -2.795154390000     1.007825032070
           H(Gh)      4.280295830000    -9.495170840000     2.972747080000     1.007825032070
           H(Gh)     -0.613066840000    -3.651030260000     0.247085470000     1.007825032070
           H(Gh)      2.308427080000   -12.558760830000    -0.069492790000     1.007825032070
           C(Gh)      1.922990980000    -6.399538650000     1.793943470000    12.000000000000
           C(Gh)     -0.227630740000    -9.810252440000    -1.616350790000    12.000000000000
           C(Gh)     -1.075310860000    -7.309181000000    -1.532702060000    12.000000000000
           C(Gh)      2.770671100000    -8.900610090000     1.710294750000    12.000000000000
           C(Gh)      0.000000000000    -5.625185570000     0.177592680000    12.000000000000
           C(Gh)      1.695360240000   -10.584605510000     0.000000000000    12.000000000000
           H(Gh)     -8.049469880000     3.788099650000     3.125888590000     1.007825032070
           H(Gh)     -4.220246000000    -2.196670570000    -2.948295910000     1.007825032070
           H(Gh)     -2.702242230000     2.185989840000    -2.795154390000     1.007825032070
           H(Gh)     -9.567473650000    -0.594560750000     2.972747080000     1.007825032070
           H(Gh)     -4.674110980000     5.249579830000     0.247085470000     1.007825032070
           H(Gh)     -7.595604900000    -3.658150750000    -0.069492790000     1.007825032070
           C(Gh)     -7.210168800000     2.501071430000     1.793943470000    12.000000000000
           C(Gh)     -5.059547080000    -0.909642350000    -1.616350790000    12.000000000000
           C(Gh)     -4.211866960000     1.591429080000    -1.532702060000    12.000000000000
           C(Gh)     -8.057848920000     0.000000000000     1.710294750000    12.000000000000
           C(Gh)     -5.287177820000     3.275424510000     0.177592680000    12.000000000000
           C(Gh)     -6.982538060000    -1.683995430000     0.000000000000    12.000000000000
           H          2.762292060000    -2.196670570000     9.560406080000     1.007825032070
           H         -1.066931820000     3.788099650000     3.486221570000     1.007825032070
           H         -2.584935590000    -0.594560750000     3.639363090000     1.007825032070
           H          4.280295830000     2.185989840000     9.407264560000     1.007825032070
           H         -0.613066840000    -3.658150750000     6.681602950000     1.007825032070
           H          2.308427080000     5.249579830000     6.365024690000     1.007825032070
           C          1.922990980000    -0.909642350000     8.228460960000    12.000000000000
           C         -0.227630740000     2.501071430000     4.818166690000    12.000000000000
           C         -1.075310860000     0.000000000000     4.901815420000    12.000000000000
           C          2.770671100000     1.591429080000     8.144812230000    12.000000000000
           C          0.000000000000    -1.683995430000     6.612110160000    12.000000000000
           C          1.695360240000     3.275424510000     6.434517480000    12.000000000000
           H(Gh)      2.762292060000    -2.196670570000    -3.308628890000     1.007825032070
           H(Gh)     -1.066931820000     3.788099650000    -9.382813390000     1.007825032070
           H(Gh)     -2.584935590000    -0.594560750000    -9.229671880000     1.007825032070
           H(Gh)      4.280295830000     2.185989840000    -3.461770410000     1.007825032070
           H(Gh)     -0.613066840000    -3.658150750000    -6.187432010000     1.007825032070
           H(Gh)      2.308427080000     5.249579830000    -6.504010270000     1.007825032070
           C(Gh)      1.922990980000    -0.909642350000    -4.640574010000    12.000000000000
           C(Gh)     -0.227630740000     2.501071430000    -8.050868270000    12.000000000000
           C(Gh)     -1.075310860000     0.000000000000    -7.967219550000    12.000000000000
           C(Gh)      2.770671100000     1.591429080000    -4.724222740000    12.000000000000
           C(Gh)      0.000000000000    -1.683995430000    -6.256924800000    12.000000000000
           C(Gh)      1.695360240000     3.275424510000    -6.434517480000    12.000000000000
           H(Gh)      5.915606250000     3.788099650000     3.125888590000     1.007825032070
           H(Gh)      9.744830120000    -2.196670570000    -2.948295910000     1.007825032070
           H(Gh)     11.262833890000     2.185989840000    -2.795154390000     1.007825032070
           H(Gh)      4.397602470000    -0.594560750000     2.972747080000     1.007825032070
           H(Gh)      9.290965140000     5.249579830000     0.247085470000     1.007825032070
           H(Gh)      6.369471220000    -3.658150750000    -0.069492790000     1.007825032070
           C(Gh)      6.754907320000     2.501071430000     1.793943470000    12.000000000000
           C(Gh)      8.905529040000    -0.909642350000    -1.616350790000    12.000000000000
           C(Gh)      9.753209160000     1.591429080000    -1.532702060000    12.000000000000
           C(Gh)      5.907227200000     0.000000000000     1.710294750000    12.000000000000
           C(Gh)      8.677898300000     3.275424510000     0.177592680000    12.000000000000
           C(Gh)      6.982538060000    -1.683995430000     0.000000000000    12.000000000000

  Running in c1 symmetry.

  Rotational constants: A =      0.00428  B =      0.00387  C =      0.00375 [cm^-1]
  Rotational constants: A =    128.26224  B =    116.04376  C =    112.36674 [MHz]
  Nuclear repulsion =  203.582005637321913

  Charge       = 0
  Multiplicity = 1
  Electrons    = 42
  Nalpha       = 21
  Nbeta        = 21

  ==> Algorithm <==

  SCF Algorithm Type is DF.
  DIIS enabled.
  MOM disabled.
  Fractional occupation disabled.
  Guess Type is SAD.
  Energy threshold   = 1.00e-08
  Density threshold  = 1.00e-06
  Integral threshold = 0.00e+00

  ==> Primary Basis <==

  Basis Set: STO-3G
    Blend: STO-3G
    Number of shells: 120
    Number of basis function: 180
    Number of Cartesian functions: 180
    Spherical Harmonics?: true
    Max angular momentum: 1

   => Loading Basis Set <=

    Name: (STO-3G AUX)
    Role: JKFIT
    Keyword: DF_BASIS_SCF
    atoms 1-6, 13-18, 25-30, 37-42, 49-54  entry H          line    22 file /home/carlosborca/psi4conda/share/psi4/basis/def2-svp-jkfit.gbs 
    atoms 7-12, 19-24, 31-36, 43-48, 55-60 entry C          line   202 file /home/carlosborca/psi4conda/share/psi4/basis/def2-svp-jkfit.gbs 

  ==> Pre-Iterations <==

   -------------------------------------------------------
    Irrep   Nso     Nmo     Nalpha   Nbeta   Ndocc  Nsocc
   -------------------------------------------------------
     A        180     180       0       0       0       0
   -------------------------------------------------------
    Total     180     180      21      21      21       0
   -------------------------------------------------------

  ==> Integral Setup <==

  ==> DFJK: Density-Fitted J/K Matrices <==

    J tasked:                  Yes
    K tasked:                  Yes
    wK tasked:                  No
    OpenMP threads:              4
    Integrals threads:           4
    Memory (MB):               357
    Algorithm:                Disk
    Integral Cache:           NONE
    Schwarz Cutoff:          1E-12
    Fitting Condition:       1E-12

   => Auxiliary Basis Set <=

  Basis Set: (STO-3G AUX)
    Blend: DEF2-SVP-JKFIT
    Number of shells: 930
    Number of basis function: 2790
    Number of Cartesian functions: 3270
    Spherical Harmonics?: true
    Max angular momentum: 4

  Minimum eigenvalue in the overlap matrix is 1.7067532340E-01.
  Using Symmetric Orthogonalization.

  SCF Guess: Superposition of Atomic Densities via on-the-fly atomic UHF.

  ==> Iterations <==

                           Total Energy        Delta E     RMS |[F,P]|

   @DF-RHF iter   0:  -229.70380183103123   -2.29704e+02   4.20838e-02 
   @DF-RHF iter   1:  -227.85100270938841    1.85280e+00   2.08034e-03 
   @DF-RHF iter   2:  -227.88650605976633   -3.55034e-02   6.62995e-04 DIIS
   @DF-RHF iter   3:  -227.89173055763877   -5.22450e-03   1.70909e-04 DIIS
   @DF-RHF iter   4:  -227.89215125905750   -4.20701e-04   5.42017e-05 DIIS
   @DF-RHF iter   5:  -227.89218986231913   -3.86033e-05   1.34929e-05 DIIS
   @DF-RHF iter   6:  -227.89219171631038   -1.85399e-06   1.96895e-06 DIIS
   @DF-RHF iter   7:  -227.89219176425496   -4.79446e-08   2.90358e-07 DIIS
   @DF-RHF iter   8:  -227.89219176511978   -8.64816e-10   9.54001e-08 DIIS

  ==> Post-Iterations <==

    Orbital Energies (a.u.)
    -----------------------

    Doubly Occupied:                                                      

       1A    -11.030478     2A    -11.030356     3A    -11.030183  
       4A    -11.030069     5A    -11.029475     6A    -11.029346  
       7A     -1.091378     8A     -0.956618     9A     -0.954612  
      10A     -0.768287    11A     -0.766561    12A     -0.662476  
      13A     -0.594292    14A     -0.555027    15A     -0.535771  
      16A     -0.532312    17A     -0.457520    18A     -0.438107  
      19A     -0.428362    20A     -0.281863    21A     -0.279720  

    Virtual:                                                              

      22A      0.249967    23A      0.255770    24A      0.258005  
      25A      0.260864    26A      0.266367    27A      0.270435  
      28A      0.374999    29A      0.379693    30A      0.382744  
      31A      0.384903    32A      0.387246    33A      0.387608  
      34A      0.390162    35A      0.391624    36A      0.503346  
      37A      0.572201    38A      0.578530    39A      0.582493  
      40A      0.585993    41A      0.587829    42A      0.588945  
      43A      0.591276    44A      0.595662    45A      0.598832  
      46A      0.638127    47A      0.655279    48A      0.715699  
      49A      0.725184    50A      0.726870    51A      0.731019  
      52A      0.734703    53A      0.738656    54A      0.741618  
      55A      0.771949    56A      0.786342    57A      0.789728  
      58A      0.802780    59A      0.881184    60A      0.885033  
      61A      0.893886    62A      0.899545    63A      0.930820  
      64A      0.937922    65A      0.948776    66A      0.950393  
      67A      0.956608    68A      0.961581    69A      0.974722  
      70A      0.976852    71A      1.083114    72A      1.087194  
      73A      1.088437    74A      1.090343    75A      1.092351  
      76A      1.144864    77A      1.148216    78A      1.153902  
      79A      1.160053    80A      1.162030    81A      1.163577  
      82A      1.164236    83A      1.169973    84A      1.173740  
      85A      1.306454    86A      1.307644    87A      1.310392  
      88A      1.312227    89A      1.319732    90A      1.323098  
      91A      1.324227    92A      1.324512    93A      1.325548  
      94A      1.327670    95A      1.328542    96A      1.329491  
      97A      1.504182    98A      1.513210    99A      1.515742  
     100A      1.521081   101A      1.764498   102A      1.780523  
     103A      1.784830   104A      1.792743   105A      1.820774  
     106A      1.822379   107A      1.823575   108A      1.824727  
     109A      1.827186   110A      1.829207   111A      1.830640  
     112A      1.833071   113A      1.936029   114A      1.938185  
     115A      1.939876   116A      1.941745   117A      1.949731  
     118A      1.957448   119A      1.957829   120A      1.965995  
     121A      2.100459   122A      2.106705   123A      2.109198  
     124A      2.114810   125A      2.121338   126A      2.126910  
     127A      2.131021   128A      2.140828   129A      2.166821  
     130A      2.169330   131A      2.171251   132A      2.173260  
     133A      2.778138   134A      2.782570   135A      2.784038  
     136A      2.785601   137A      2.788688   138A      2.790109  
     139A      2.792578   140A      2.793744   141A      2.806423  
     142A      2.808312   143A      2.809702   144A      2.812184  
     145A      2.824641   146A      2.826770   147A      2.827080  
     148A      2.829030   149A      3.236119   150A      3.240147  
     151A      3.242990   152A      3.245250   153A      3.365998  
     154A      3.367738   155A      3.368494   156A      3.370424  
     157A     17.071876   158A     17.077575   159A     17.078770  
     160A     17.085623   161A     17.329353   162A     17.329736  
     163A     17.330650   164A     17.332639   165A     17.333272  
     166A     17.334205   167A     17.335686   168A     17.338034  
     169A     17.793520   170A     17.794038   171A     17.795772  
     172A     17.796250   173A     17.799656   174A     17.800610  
     175A     17.801669   176A     17.802507   177A     18.061423  
     178A     18.064117   179A     18.065605   180A     18.067573  

    Final Occupation by Irrep:
              A 
    DOCC [    21 ]

  Energy converged.

  @DF-RHF Final Energy:  -227.89219176511978

   => Energetics <=

    Nuclear Repulsion Energy =            203.5820056373219131
    One-Electron Energy =                -711.9827765928682766
    Two-Electron Energy =                 280.5085791904265875
    DFT Exchange-Correlation Energy =       0.0000000000000000
    Empirical Dispersion Energy =           0.0000000000000000
    PCM Polarization Energy =               0.0000000000000000
    EFP Energy =                            0.0000000000000000
    Total Energy =                       -227.8921917651197759



Properties will be evaluated at   0.000000,   0.000000,   0.000000 Bohr

Properties computed using the SCF density matrix

  Nuclear Dipole Moment: (a.u.)
     X:    35.6026      Y:    33.4200      Z:   273.9792

  Electronic Dipole Moment: (a.u.)
     X:   -35.6103      Y:   -33.4155      Z:  -273.9609

  Dipole Moment: (a.u.)
     X:    -0.0077      Y:     0.0045      Z:     0.0183     Total:     0.0203

  Dipole Moment: (Debye)
     X:    -0.0196      Y:     0.0115      Z:     0.0465     Total:     0.0517


*** tstop() called on Magnesium at Tue Mar 20 23:05:06 2018
Module time:
	user time   =     102.21 seconds =       1.70 minutes
	system time =       7.80 seconds =       0.13 minutes
	total time  =         55 seconds =       0.92 minutes
Total time:
	user time   =     410.59 seconds =       6.84 minutes
	system time =      30.71 seconds =       0.51 minutes
	total time  =        220 seconds =       3.67 minutes

       N-Body: Complex Energy (fragments = (3,), basis = (1, 2, 3, 4, 5):  -227.89219176511978)

       N-Body: Computing complex (5/5) with fragments (5,) in the basis of fragments (1, 2, 3, 4, 5).


*** tstart() called on Magnesium
*** at Tue Mar 20 23:05:06 2018

   => Loading Basis Set <=

    Name: STO-3G
    Role: ORBITAL
    Keyword: BASIS
    atoms 1-6, 13-18, 25-30, 37-42, 49-54  entry H          line    18 file /home/carlosborca/psi4conda/share/psi4/basis/sto-3g.gbs 
    atoms 7-12, 19-24, 31-36, 43-48, 55-60 entry C          line    60 file /home/carlosborca/psi4conda/share/psi4/basis/sto-3g.gbs 

    There are an even number of electrons - assuming singlet.
    Specify the multiplicity in the molecule input block.


         ---------------------------------------------------------
                                   SCF
            by Justin Turney, Rob Parrish, and Andy Simmonett
                              RHF Reference
                        4 Threads,    476 MiB Core
         ---------------------------------------------------------

  ==> Geometry <==

    Molecular point group: c1
    Full point group: C1

    Geometry (in Bohr), charge = 0, multiplicity = 1:

       Center              X                  Y                   Z               Mass       
    ------------   -----------------  -----------------  -----------------  -----------------
           H(Gh)      2.762292060000    -5.112510430000     3.125888590000     1.007825032070
           H(Gh)     -1.066931820000   -11.097280660000    -2.948295910000     1.007825032070
           H(Gh)     -2.584935590000    -6.714620250000    -2.795154390000     1.007825032070
           H(Gh)      4.280295830000    -9.495170840000     2.972747080000     1.007825032070
           H(Gh)     -0.613066840000    -3.651030260000     0.247085470000     1.007825032070
           H(Gh)      2.308427080000   -12.558760830000    -0.069492790000     1.007825032070
           C(Gh)      1.922990980000    -6.399538650000     1.793943470000    12.000000000000
           C(Gh)     -0.227630740000    -9.810252440000    -1.616350790000    12.000000000000
           C(Gh)     -1.075310860000    -7.309181000000    -1.532702060000    12.000000000000
           C(Gh)      2.770671100000    -8.900610090000     1.710294750000    12.000000000000
           C(Gh)      0.000000000000    -5.625185570000     0.177592680000    12.000000000000
           C(Gh)      1.695360240000   -10.584605510000     0.000000000000    12.000000000000
           H(Gh)     -8.049469880000     3.788099650000     3.125888590000     1.007825032070
           H(Gh)     -4.220246000000    -2.196670570000    -2.948295910000     1.007825032070
           H(Gh)     -2.702242230000     2.185989840000    -2.795154390000     1.007825032070
           H(Gh)     -9.567473650000    -0.594560750000     2.972747080000     1.007825032070
           H(Gh)     -4.674110980000     5.249579830000     0.247085470000     1.007825032070
           H(Gh)     -7.595604900000    -3.658150750000    -0.069492790000     1.007825032070
           C(Gh)     -7.210168800000     2.501071430000     1.793943470000    12.000000000000
           C(Gh)     -5.059547080000    -0.909642350000    -1.616350790000    12.000000000000
           C(Gh)     -4.211866960000     1.591429080000    -1.532702060000    12.000000000000
           C(Gh)     -8.057848920000     0.000000000000     1.710294750000    12.000000000000
           C(Gh)     -5.287177820000     3.275424510000     0.177592680000    12.000000000000
           C(Gh)     -6.982538060000    -1.683995430000     0.000000000000    12.000000000000
           H(Gh)      2.762292060000    -2.196670570000     9.560406080000     1.007825032070
           H(Gh)     -1.066931820000     3.788099650000     3.486221570000     1.007825032070
           H(Gh)     -2.584935590000    -0.594560750000     3.639363090000     1.007825032070
           H(Gh)      4.280295830000     2.185989840000     9.407264560000     1.007825032070
           H(Gh)     -0.613066840000    -3.658150750000     6.681602950000     1.007825032070
           H(Gh)      2.308427080000     5.249579830000     6.365024690000     1.007825032070
           C(Gh)      1.922990980000    -0.909642350000     8.228460960000    12.000000000000
           C(Gh)     -0.227630740000     2.501071430000     4.818166690000    12.000000000000
           C(Gh)     -1.075310860000     0.000000000000     4.901815420000    12.000000000000
           C(Gh)      2.770671100000     1.591429080000     8.144812230000    12.000000000000
           C(Gh)      0.000000000000    -1.683995430000     6.612110160000    12.000000000000
           C(Gh)      1.695360240000     3.275424510000     6.434517480000    12.000000000000
           H(Gh)      2.762292060000    -2.196670570000    -3.308628890000     1.007825032070
           H(Gh)     -1.066931820000     3.788099650000    -9.382813390000     1.007825032070
           H(Gh)     -2.584935590000    -0.594560750000    -9.229671880000     1.007825032070
           H(Gh)      4.280295830000     2.185989840000    -3.461770410000     1.007825032070
           H(Gh)     -0.613066840000    -3.658150750000    -6.187432010000     1.007825032070
           H(Gh)      2.308427080000     5.249579830000    -6.504010270000     1.007825032070
           C(Gh)      1.922990980000    -0.909642350000    -4.640574010000    12.000000000000
           C(Gh)     -0.227630740000     2.501071430000    -8.050868270000    12.000000000000
           C(Gh)     -1.075310860000     0.000000000000    -7.967219550000    12.000000000000
           C(Gh)      2.770671100000     1.591429080000    -4.724222740000    12.000000000000
           C(Gh)      0.000000000000    -1.683995430000    -6.256924800000    12.000000000000
           C(Gh)      1.695360240000     3.275424510000    -6.434517480000    12.000000000000
           H          5.915606250000     3.788099650000     3.125888590000     1.007825032070
           H          9.744830120000    -2.196670570000    -2.948295910000     1.007825032070
           H         11.262833890000     2.185989840000    -2.795154390000     1.007825032070
           H          4.397602470000    -0.594560750000     2.972747080000     1.007825032070
           H          9.290965140000     5.249579830000     0.247085470000     1.007825032070
           H          6.369471220000    -3.658150750000    -0.069492790000     1.007825032070
           C          6.754907320000     2.501071430000     1.793943470000    12.000000000000
           C          8.905529040000    -0.909642350000    -1.616350790000    12.000000000000
           C          9.753209160000     1.591429080000    -1.532702060000    12.000000000000
           C          5.907227200000     0.000000000000     1.710294750000    12.000000000000
           C          8.677898300000     3.275424510000     0.177592680000    12.000000000000
           C          6.982538060000    -1.683995430000     0.000000000000    12.000000000000

  Running in c1 symmetry.

  Rotational constants: A =      0.00428  B =      0.00387  C =      0.00375 [cm^-1]
  Rotational constants: A =    128.26224  B =    116.04376  C =    112.36674 [MHz]
  Nuclear repulsion =  203.582005718498692

  Charge       = 0
  Multiplicity = 1
  Electrons    = 42
  Nalpha       = 21
  Nbeta        = 21

  ==> Algorithm <==

  SCF Algorithm Type is DF.
  DIIS enabled.
  MOM disabled.
  Fractional occupation disabled.
  Guess Type is SAD.
  Energy threshold   = 1.00e-08
  Density threshold  = 1.00e-06
  Integral threshold = 0.00e+00

  ==> Primary Basis <==

  Basis Set: STO-3G
    Blend: STO-3G
    Number of shells: 120
    Number of basis function: 180
    Number of Cartesian functions: 180
    Spherical Harmonics?: true
    Max angular momentum: 1

   => Loading Basis Set <=

    Name: (STO-3G AUX)
    Role: JKFIT
    Keyword: DF_BASIS_SCF
    atoms 1-6, 13-18, 25-30, 37-42, 49-54  entry H          line    22 file /home/carlosborca/psi4conda/share/psi4/basis/def2-svp-jkfit.gbs 
    atoms 7-12, 19-24, 31-36, 43-48, 55-60 entry C          line   202 file /home/carlosborca/psi4conda/share/psi4/basis/def2-svp-jkfit.gbs 

  ==> Pre-Iterations <==

   -------------------------------------------------------
    Irrep   Nso     Nmo     Nalpha   Nbeta   Ndocc  Nsocc
   -------------------------------------------------------
     A        180     180       0       0       0       0
   -------------------------------------------------------
    Total     180     180      21      21      21       0
   -------------------------------------------------------

  ==> Integral Setup <==

  ==> DFJK: Density-Fitted J/K Matrices <==

    J tasked:                  Yes
    K tasked:                  Yes
    wK tasked:                  No
    OpenMP threads:              4
    Integrals threads:           4
    Memory (MB):               357
    Algorithm:                Disk
    Integral Cache:           NONE
    Schwarz Cutoff:          1E-12
    Fitting Condition:       1E-12

   => Auxiliary Basis Set <=

  Basis Set: (STO-3G AUX)
    Blend: DEF2-SVP-JKFIT
    Number of shells: 930
    Number of basis function: 2790
    Number of Cartesian functions: 3270
    Spherical Harmonics?: true
    Max angular momentum: 4

  Minimum eigenvalue in the overlap matrix is 1.7067532340E-01.
  Using Symmetric Orthogonalization.

  SCF Guess: Superposition of Atomic Densities via on-the-fly atomic UHF.

  ==> Iterations <==

                           Total Energy        Delta E     RMS |[F,P]|

[...]
     142A      0.904559   143A      0.907941   144A      0.957120  
     145A      0.960655   146A      1.087670   147A      1.088075  
     148A      1.091541   149A      1.092093   150A      1.094896  
     151A      1.148514   152A      1.150537   153A      1.154308  
     154A      1.155127   155A      1.161059   156A      1.162151  
     157A      1.310137   158A      1.324542   159A      1.327062  
     160A      1.513222   161A      1.782056   162A      1.822816  
     163A      1.828963   164A      1.938959   165A      1.956785  
     166A      2.110148   167A      2.125509   168A      2.168551  
     169A      2.785388   170A      2.788136   171A      2.809023  
     172A      2.826709   173A      3.240772   174A      3.368376  
     175A     17.078750   176A     17.332285   177A     17.333628  
     178A     17.796370   179A     17.799663   180A     18.064702  

    Final Occupation by Irrep:
              A 
    DOCC [    84 ]

  Energy converged.

  @DF-RHF Final Energy:  -911.56111481681000

   => Energetics <=

    Nuclear Repulsion Energy =           1780.3912919851961760
    One-Electron Energy =               -4780.2538842199510327
    Two-Electron Energy =                2088.3014774179446249
    DFT Exchange-Correlation Energy =       0.0000000000000000
    Empirical Dispersion Energy =           0.0000000000000000
    PCM Polarization Energy =               0.0000000000000000
    EFP Energy =                            0.0000000000000000
    Total Energy =                       -911.5611148168100044



Properties will be evaluated at   0.000000,   0.000000,   0.000000 Bohr

Properties computed using the SCF density matrix

  Nuclear Dipole Moment: (a.u.)
     X:   142.4103      Y:  -240.1456      Z:  -255.3319

  Electronic Dipole Moment: (a.u.)
     X:  -142.3338      Y:   240.1361      Z:   255.3287

  Dipole Moment: (a.u.)
     X:     0.0765      Y:    -0.0095      Z:    -0.0033     Total:     0.0772

  Dipole Moment: (Debye)
     X:     0.1945      Y:    -0.0241      Z:    -0.0083     Total:     0.1961


*** tstop() called on Magnesium at Tue Mar 20 23:31:42 2018
Module time:
	user time   =     122.49 seconds =       2.04 minutes
	system time =       8.86 seconds =       0.15 minutes
	total time  =         65 seconds =       1.08 minutes
Total time:
	user time   =    3460.38 seconds =      57.67 minutes
	system time =     248.24 seconds =       4.14 minutes
	total time  =       1816 seconds =      30.27 minutes

       N-Body: Complex Energy (fragments = (1, 2, 4, 5), basis = (1, 2, 3, 4, 5):  -911.56111481681000)

   ==> N-Body: Now computing 5-body complexes <==


       N-Body: Computing complex (1/1) with fragments (1, 2, 3, 4, 5) in the basis of fragments (1, 2, 3, 4, 5).


*** tstart() called on Magnesium
*** at Tue Mar 20 23:31:42 2018

   => Loading Basis Set <=

    Name: STO-3G
    Role: ORBITAL
    Keyword: BASIS
    atoms 1-6, 13-18, 25-30, 37-42, 49-54  entry H          line    18 file /home/carlosborca/psi4conda/share/psi4/basis/sto-3g.gbs 
    atoms 7-12, 19-24, 31-36, 43-48, 55-60 entry C          line    60 file /home/carlosborca/psi4conda/share/psi4/basis/sto-3g.gbs 

    There are an even number of electrons - assuming singlet.
    Specify the multiplicity in the molecule input block.


         ---------------------------------------------------------
                                   SCF
            by Justin Turney, Rob Parrish, and Andy Simmonett
                              RHF Reference
                        4 Threads,    476 MiB Core
         ---------------------------------------------------------

  ==> Geometry <==

    Molecular point group: c1
    Full point group: C1

    Geometry (in Bohr), charge = 0, multiplicity = 1:

       Center              X                  Y                   Z               Mass       
    ------------   -----------------  -----------------  -----------------  -----------------
           H          2.762292060000    -5.112510430000     3.125888590000     1.007825032070
           H         -1.066931820000   -11.097280660000    -2.948295910000     1.007825032070
           H         -2.584935590000    -6.714620250000    -2.795154390000     1.007825032070
           H          4.280295830000    -9.495170840000     2.972747080000     1.007825032070
           H         -0.613066840000    -3.651030260000     0.247085470000     1.007825032070
           H          2.308427080000   -12.558760830000    -0.069492790000     1.007825032070
           C          1.922990980000    -6.399538650000     1.793943470000    12.000000000000
           C         -0.227630740000    -9.810252440000    -1.616350790000    12.000000000000
           C         -1.075310860000    -7.309181000000    -1.532702060000    12.000000000000
           C          2.770671100000    -8.900610090000     1.710294750000    12.000000000000
           C          0.000000000000    -5.625185570000     0.177592680000    12.000000000000
           C          1.695360240000   -10.584605510000     0.000000000000    12.000000000000
           H         -8.049469880000     3.788099650000     3.125888590000     1.007825032070
           H         -4.220246000000    -2.196670570000    -2.948295910000     1.007825032070
           H         -2.702242230000     2.185989840000    -2.795154390000     1.007825032070
           H         -9.567473650000    -0.594560750000     2.972747080000     1.007825032070
           H         -4.674110980000     5.249579830000     0.247085470000     1.007825032070
           H         -7.595604900000    -3.658150750000    -0.069492790000     1.007825032070
           C         -7.210168800000     2.501071430000     1.793943470000    12.000000000000
           C         -5.059547080000    -0.909642350000    -1.616350790000    12.000000000000
           C         -4.211866960000     1.591429080000    -1.532702060000    12.000000000000
           C         -8.057848920000     0.000000000000     1.710294750000    12.000000000000
           C         -5.287177820000     3.275424510000     0.177592680000    12.000000000000
           C         -6.982538060000    -1.683995430000     0.000000000000    12.000000000000
           H          2.762292060000    -2.196670570000     9.560406080000     1.007825032070
           H         -1.066931820000     3.788099650000     3.486221570000     1.007825032070
           H         -2.584935590000    -0.594560750000     3.639363090000     1.007825032070
           H          4.280295830000     2.185989840000     9.407264560000     1.007825032070
           H         -0.613066840000    -3.658150750000     6.681602950000     1.007825032070
           H          2.308427080000     5.249579830000     6.365024690000     1.007825032070
           C          1.922990980000    -0.909642350000     8.228460960000    12.000000000000
           C         -0.227630740000     2.501071430000     4.818166690000    12.000000000000
           C         -1.075310860000     0.000000000000     4.901815420000    12.000000000000
           C          2.770671100000     1.591429080000     8.144812230000    12.000000000000
           C          0.000000000000    -1.683995430000     6.612110160000    12.000000000000
           C          1.695360240000     3.275424510000     6.434517480000    12.000000000000
           H          2.762292060000    -2.196670570000    -3.308628890000     1.007825032070
           H         -1.066931820000     3.788099650000    -9.382813390000     1.007825032070
           H         -2.584935590000    -0.594560750000    -9.229671880000     1.007825032070
           H          4.280295830000     2.185989840000    -3.461770410000     1.007825032070
           H         -0.613066840000    -3.658150750000    -6.187432010000     1.007825032070
           H          2.308427080000     5.249579830000    -6.504010270000     1.007825032070
           C          1.922990980000    -0.909642350000    -4.640574010000    12.000000000000
           C         -0.227630740000     2.501071430000    -8.050868270000    12.000000000000
           C         -1.075310860000     0.000000000000    -7.967219550000    12.000000000000
           C          2.770671100000     1.591429080000    -4.724222740000    12.000000000000
           C          0.000000000000    -1.683995430000    -6.256924800000    12.000000000000
           C          1.695360240000     3.275424510000    -6.434517480000    12.000000000000
           H          5.915606250000     3.788099650000     3.125888590000     1.007825032070
           H          9.744830120000    -2.196670570000    -2.948295910000     1.007825032070
           H         11.262833890000     2.185989840000    -2.795154390000     1.007825032070
           H          4.397602470000    -0.594560750000     2.972747080000     1.007825032070
           H          9.290965140000     5.249579830000     0.247085470000     1.007825032070
           H          6.369471220000    -3.658150750000    -0.069492790000     1.007825032070
           C          6.754907320000     2.501071430000     1.793943470000    12.000000000000
           C          8.905529040000    -0.909642350000    -1.616350790000    12.000000000000
           C          9.753209160000     1.591429080000    -1.532702060000    12.000000000000
           C          5.907227200000     0.000000000000     1.710294750000    12.000000000000
           C          8.677898300000     3.275424510000     0.177592680000    12.000000000000
           C          6.982538060000    -1.683995430000     0.000000000000    12.000000000000

  Running in c1 symmetry.

  Rotational constants: A =      0.00428  B =      0.00387  C =      0.00375 [cm^-1]
  Rotational constants: A =    128.26224  B =    116.04376  C =    112.36674 [MHz]
  Nuclear repulsion = 2645.044648407926616

  Charge       = 0
  Multiplicity = 1
  Electrons    = 210
  Nalpha       = 105
  Nbeta        = 105

  ==> Algorithm <==

  SCF Algorithm Type is DF.
  DIIS enabled.
  MOM disabled.
  Fractional occupation disabled.
  Guess Type is SAD.
  Energy threshold   = 1.00e-08
  Density threshold  = 1.00e-06
  Integral threshold = 0.00e+00

  ==> Primary Basis <==

  Basis Set: STO-3G
    Blend: STO-3G
    Number of shells: 120
    Number of basis function: 180
    Number of Cartesian functions: 180
    Spherical Harmonics?: true
    Max angular momentum: 1

   => Loading Basis Set <=

    Name: (STO-3G AUX)
    Role: JKFIT
    Keyword: DF_BASIS_SCF
    atoms 1-6, 13-18, 25-30, 37-42, 49-54  entry H          line    22 file /home/carlosborca/psi4conda/share/psi4/basis/def2-svp-jkfit.gbs 
    atoms 7-12, 19-24, 31-36, 43-48, 55-60 entry C          line   202 file /home/carlosborca/psi4conda/share/psi4/basis/def2-svp-jkfit.gbs 

  ==> Pre-Iterations <==

   -------------------------------------------------------
    Irrep   Nso     Nmo     Nalpha   Nbeta   Ndocc  Nsocc
   -------------------------------------------------------
     A        180     180       0       0       0       0
   -------------------------------------------------------
    Total     180     180     105     105     105       0
   -------------------------------------------------------

  ==> Integral Setup <==

  ==> DFJK: Density-Fitted J/K Matrices <==

    J tasked:                  Yes
    K tasked:                  Yes
    wK tasked:                  No
    OpenMP threads:              4
    Integrals threads:           4
    Memory (MB):               357
    Algorithm:                Disk
    Integral Cache:           NONE
    Schwarz Cutoff:          1E-12
    Fitting Condition:       1E-12

   => Auxiliary Basis Set <=

  Basis Set: (STO-3G AUX)
    Blend: DEF2-SVP-JKFIT
    Number of shells: 930
    Number of basis function: 2790
    Number of Cartesian functions: 3270
    Spherical Harmonics?: true
    Max angular momentum: 4

  Minimum eigenvalue in the overlap matrix is 1.7067532340E-01.
  Using Symmetric Orthogonalization.

  SCF Guess: Superposition of Atomic Densities via on-the-fly atomic UHF.

  ==> Iterations <==

                           Total Energy        Delta E     RMS |[F,P]|

   @DF-RHF iter   0: -1144.59084635820386   -1.14459e+03   9.13927e-02 
   @DF-RHF iter   1: -1139.02764926474424    5.56320e+00   7.13658e-03 
   @DF-RHF iter   2: -1139.40580926946859   -3.78160e-01   2.07488e-03 DIIS
   @DF-RHF iter   3: -1139.44523617877462   -3.94269e-02   5.71450e-04 DIIS
   @DF-RHF iter   4: -1139.44811013171420   -2.87395e-03   1.97903e-04 DIIS
   @DF-RHF iter   5: -1139.44864166249135   -5.31531e-04   3.90751e-05 DIIS
   @DF-RHF iter   6: -1139.44868391810905   -4.22556e-05   1.25938e-05 DIIS
   @DF-RHF iter   7: -1139.44868503028329   -1.11217e-06   2.82495e-06 DIIS
   @DF-RHF iter   8: -1139.44868509828279   -6.79995e-08   4.75449e-07 DIIS
   @DF-RHF iter   9: -1139.44868510068272   -2.39993e-09   2.10975e-07 DIIS

  ==> Post-Iterations <==

    Orbital Energies (a.u.)
    -----------------------

    Doubly Occupied:                                                      

       1A    -11.030079     2A    -11.029860     3A    -11.029738  
       4A    -11.029406     5A    -11.029286     6A    -11.029055  
       7A    -11.028962     8A    -11.028769     9A    -11.028703  
      10A    -11.028609    11A    -11.028353    12A    -11.028325  
      13A    -11.028044    14A    -11.027973    15A    -11.027742  
      16A    -11.027469    17A    -11.027434    18A    -11.027254  
      19A    -11.027203    20A    -11.026894    21A    -11.026886  
      22A    -11.026805    23A    -11.026789    24A    -11.026750  
      25A    -11.026529    26A    -11.026467    27A    -11.025975  
      28A    -11.025699    29A    -11.024991    30A    -11.024493  
      31A     -1.092222    32A     -1.091010    33A     -1.090193  
      34A     -1.089448    35A     -1.087890    36A     -0.957742  
      37A     -0.957007    38A     -0.955966    39A     -0.954904  
      40A     -0.953882    41A     -0.953744    42A     -0.953157  
      43A     -0.952149    44A     -0.951767    45A     -0.951317  
      46A     -0.770151    47A     -0.768554    48A     -0.767148  
      49A     -0.766667    50A     -0.766311    51A     -0.765294  
      52A     -0.765045    53A     -0.764133    54A     -0.763152  
      55A     -0.761829    56A     -0.666681    57A     -0.661233  
      58A     -0.660875    59A     -0.659532    60A     -0.657541  
      61A     -0.597262    62A     -0.593148    63A     -0.592295  
      64A     -0.591813    65A     -0.588498    66A     -0.554950  
      67A     -0.553700    68A     -0.553639    69A     -0.552363  
      70A     -0.551812    71A     -0.539013    72A     -0.538636  
      73A     -0.535796    74A     -0.534454    75A     -0.533266  
      76A     -0.531671    77A     -0.530168    78A     -0.529684  
      79A     -0.527503    80A     -0.526795    81A     -0.458006  
      82A     -0.456445    83A     -0.455749    84A     -0.454869  
      85A     -0.454447    86A     -0.438684    87A     -0.436334  
      88A     -0.435578    89A     -0.434748    90A     -0.434269  
      91A     -0.428803    92A     -0.425978    93A     -0.425230  
      94A     -0.424777    95A     -0.423134    96A     -0.282412  
      97A     -0.281494    98A     -0.280897    99A     -0.280602  
     100A     -0.279923   101A     -0.279484   102A     -0.279084  
     103A     -0.277723   104A     -0.277168   105A     -0.274433  

    Virtual:                                                              

     106A      0.265546   107A      0.267116   108A      0.267577  
     109A      0.268498   110A      0.268992   111A      0.270677  
     112A      0.271509   113A      0.271569   114A      0.272627  
     115A      0.273094   116A      0.502738   117A      0.504112  
     118A      0.504639   119A      0.505838   120A      0.506405  
     121A      0.562442   122A      0.578580   123A      0.580194  
     124A      0.584872   125A      0.588080   126A      0.631502  
     127A      0.635474   128A      0.639890   129A      0.641114  
     130A      0.645586   131A      0.653226   132A      0.659169  
     133A      0.662687   134A      0.665196   135A      0.667727  
     136A      0.714248   137A      0.720475   138A      0.722069  
     139A      0.723959   140A      0.725034   141A      0.727438  
     142A      0.729976   143A      0.730292   144A      0.731721  
     145A      0.733684   146A      0.738130   147A      0.743986  
     148A      0.745205   149A      0.746466   150A      0.751973  
     151A      0.876190   152A      0.879228   153A      0.881827  
     154A      0.882875   155A      0.885692   156A      0.886400  
     157A      0.888671   158A      0.889866   159A      0.891087  
     160A      0.892688   161A      0.894453   162A      0.896582  
     163A      0.897197   164A      0.898459   165A      0.900321  
     166A      0.901765   167A      0.903515   168A      0.904967  
     169A      0.906356   170A      0.908733   171A      1.088822  
     172A      1.090020   173A      1.090062   174A      1.091398  
     175A      1.091932   176A      1.148949   177A      1.153140  
     178A      1.153500   179A      1.154518   180A      1.156257  

    Final Occupation by Irrep:
              A 
    DOCC [   105 ]

  Energy converged.

  @DF-RHF Final Energy: -1139.44868510068272

   => Energetics <=

    Nuclear Repulsion Energy =           2645.0446484079266156
    One-Electron Energy =               -6814.5390478103654459
    Two-Electron Energy =                3030.0457143017561066
    DFT Exchange-Correlation Energy =       0.0000000000000000
    Empirical Dispersion Energy =           0.0000000000000000
    PCM Polarization Energy =               0.0000000000000000
    EFP Energy =                            0.0000000000000000
    Total Energy =                      -1139.4486851006827237



Properties will be evaluated at   0.000000,   0.000000,   0.000000 Bohr

Properties computed using the SCF density matrix

  Nuclear Dipole Moment: (a.u.)
     X:   178.0128      Y:  -206.7256      Z:    18.6472

  Electronic Dipole Moment: (a.u.)
     X:  -178.0200      Y:   206.7244      Z:   -18.6196

  Dipole Moment: (a.u.)
     X:    -0.0072      Y:    -0.0012      Z:     0.0277     Total:     0.0286

  Dipole Moment: (Debye)
     X:    -0.0182      Y:    -0.0030      Z:     0.0704     Total:     0.0727


*** tstop() called on Magnesium at Tue Mar 20 23:32:52 2018
Module time:
	user time   =     130.50 seconds =       2.17 minutes
	system time =       8.82 seconds =       0.15 minutes
	total time  =         70 seconds =       1.17 minutes
Total time:
	user time   =    3590.92 seconds =      59.85 minutes
	system time =     257.10 seconds =       4.28 minutes
	total time  =       1886 seconds =      31.43 minutes

       N-Body: Complex Energy (fragments = (1, 2, 3, 4, 5), basis = (1, 2, 3, 4, 5): -1139.44868510068272)

   ==> N-Body: Counterpoise Corrected (CP)  energies <==

   n-Body     Total Energy [Eh]       I.E. [kcal/mol]      Delta [kcal/mol]
        1    -1139.459961184581        0.000000000000        0.000000000000
        2    -1139.448474897852        7.207754042454        7.207754042454
        3    -1139.448690955174        7.072176019958       -0.135578022496
        4    -1139.448685099243        7.075850672448        0.003674652490
        5    -1139.448685100683        7.075849769004       -0.000000903444

   => Loading Basis Set <=

    Name: STO-3G
    Role: ORBITAL
    Keyword: BASIS
    atoms 1-6, 13-18, 25-30, 37-42, 49-54  entry H          line    18 file /home/carlosborca/psi4conda/share/psi4/basis/sto-3g.gbs 
    atoms 7-12, 19-24, 31-36, 43-48, 55-60 entry C          line    60 file /home/carlosborca/psi4conda/share/psi4/basis/sto-3g.gbs 

    There are an even number of electrons - assuming singlet.
    Specify the multiplicity in the molecule input block.


*** Psi4 exiting successfully. Buy a developer a beer!
