
    -----------------------------------------------------------------------
          Psi4: An Open-Source Ab Initio Electronic Structure Package
                               Psi4 1.4a2.dev37 

                         Git: Rev {master} a6305a1 


    R. M. Parrish, L. A. Burns, D. G. A. Smith, A. C. Simmonett,
    A. E. DePrince III, E. G. Hohenstein, U. Bozkaya, A. Yu. Sokolov,
    R. Di Remigio, R. M. Richard, J. F. Gonthier, A. M. James,
    H. R. McAlexander, A. Kumar, M. Saitow, X. Wang, B. P. Pritchard,
    P. Verma, H. F. Schaefer III, K. Patkowski, R. A. King, E. F. Valeev,
    F. A. Evangelista, J. M. Turney, T. D. Crawford, and C. D. Sherrill,
    J. Chem. Theory Comput. 13(7) pp 3185--3197 (2017).
    (doi: 10.1021/acs.jctc.7b00174)


                         Additional Contributions by
    P. Kraus, H. Kruse, M. H. Lechner, M. C. Schieber, R. A. Shaw,
    A. Alenaizan, R. Galvelis, Z. L. Glick, S. Lehtola, and J. P. Misiewicz

    -----------------------------------------------------------------------


    Psi4 started on: Thursday, 26 September 2019 11:47AM

    Process ID: 180
    Host:       Vanadium
    PSIDATADIR: /home/carlosborca/miniconda3/envs/CrystaLattE/share/psi4
    Memory:     500.0 MiB
    Threads:    8
    
  ==> Input File <==

--------------------------------------------------------------------------
# PSI4 file produced by CrystaLattE

# Psithon input for N-mer:      2mer-0+1
# Number of replicas:           6
# Priority index for input:     8.55220879e-03
# Minimum monomer separations:  2.588 
# COM priority index for input: 2.53171032e-03
# Minimum COM separations:      3.883 

memory 500 MB

molecule Dimer_0_1 {
  N           -1.68115516      -1.68115516      -1.68115516 
  H           -2.60026315      -0.14736840      -1.13434212 
  H           -1.13434212      -2.60026315      -0.14736840 
  H           -0.14736840      -1.13434212      -2.60026315 
--
  N            3.92851196       3.16646478      -0.91910799 
  H            2.39472520       3.71327782       0.00000000 
  H            4.84761994       4.70025154      -1.46592103 
  H            3.38169892       2.24735679      -2.45289475 
units = au
no_com
no_reorient
}

set {
  e_convergence 8
  scf_type df
  mp2_type df
  cc_type df
  freeze_core true
}

energy('scf/STO-3G', bsse_type = 'cp')

--------------------------------------------------------------------------

  Memory set to 476.837 MiB by Python driver.


   ===> N-Body Interaction Abacus <===
        BSSE Treatment:                     cp
        Number of 1-body computations:     4
        Number of 2-body computations:     1

   ==> N-Body: Now computing 1-body complexes <==


       N-Body: Computing complex (1/4) with fragments (2,) in the basis of fragments (2,).


*** tstart() called on Vanadium
*** at Thu Sep 26 11:47:11 2019

   => Loading Basis Set <=

    Name: STO-3G
    Role: ORBITAL
    Keyword: BASIS
    atoms 1   entry N          line    71 file /home/carlosborca/miniconda3/envs/CrystaLattE/share/psi4/basis/sto-3g.gbs 
    atoms 2-4 entry H          line    19 file /home/carlosborca/miniconda3/envs/CrystaLattE/share/psi4/basis/sto-3g.gbs 


         ---------------------------------------------------------
                                   SCF
               by Justin Turney, Rob Parrish, Andy Simmonett
                          and Daniel G. A. Smith
                              RHF Reference
                        8 Threads,    476 MiB Core
         ---------------------------------------------------------

  ==> Geometry <==

    Molecular point group: c1
    Full point group: C1

    Geometry (in Bohr), charge = 0, multiplicity = 1:

       Center              X                  Y                   Z               Mass       
    ------------   -----------------  -----------------  -----------------  -----------------
         N            3.928511960000     3.166464780000    -0.919107990000    14.003074004430
         H            2.394725200000     3.713277820000     0.000000000000     1.007825032230
         H            4.847619940000     4.700251540000    -1.465921030000     1.007825032230
         H            3.381698920000     2.247356790000    -2.452894750000     1.007825032230

  Running in c1 symmetry.

  Rotational constants: A =     10.50680  B =      0.13254  C =      0.13153 [cm^-1]
  Rotational constants: A = 314985.91418  B =   3973.38736  C =   3943.16163 [MHz]
  Nuclear repulsion =   12.223291200851136

  Charge       = 0
  Multiplicity = 1
  Electrons    = 10
  Nalpha       = 5
  Nbeta        = 5

  ==> Algorithm <==

  SCF Algorithm Type is DF.
  DIIS enabled.
  MOM disabled.
  Fractional occupation disabled.
  Guess Type is SAD.
  Energy threshold   = 1.00e-08
  Density threshold  = 1.00e-06
  Integral threshold = 0.00e+00

  ==> Primary Basis <==

  Basis Set: STO-3G
    Blend: STO-3G
    Number of shells: 6
    Number of basis function: 8
    Number of Cartesian functions: 8
    Spherical Harmonics?: true
    Max angular momentum: 1

   => Loading Basis Set <=

    Name: (STO-3G AUX)
    Role: JKFIT
    Keyword: DF_BASIS_SCF
    atoms 1   entry N          line   263 file /home/carlosborca/miniconda3/envs/CrystaLattE/share/psi4/basis/def2-svp-jkfit.gbs 
    atoms 2-4 entry H          line    23 file /home/carlosborca/miniconda3/envs/CrystaLattE/share/psi4/basis/def2-svp-jkfit.gbs 

  ==> Pre-Iterations <==

   -------------------------------------------------------
    Irrep   Nso     Nmo     Nalpha   Nbeta   Ndocc  Nsocc
   -------------------------------------------------------
     A          8       8       0       0       0       0
   -------------------------------------------------------
    Total       8       8       5       5       5       0
   -------------------------------------------------------

  ==> Integral Setup <==

  DFHelper Memory: AOs need 0.000 GiB; user supplied 0.349 GiB. Using in-core AOs.

  ==> MemDFJK: Density-Fitted J/K Matrices <==

    J tasked:                   Yes
    K tasked:                   Yes
    wK tasked:                   No
    OpenMP threads:               8
    Memory [MiB]:               357
    Algorithm:                 Core
    Schwarz Cutoff:           1E-12
    Mask sparsity (%):       0.0000
    Fitting Condition:        1E-10

   => Auxiliary Basis Set <=

  Basis Set: (STO-3G AUX)
    Blend: DEF2-SVP-JKFIT
    Number of shells: 43
    Number of basis function: 131
    Number of Cartesian functions: 153
    Spherical Harmonics?: true
    Max angular momentum: 4

  Minimum eigenvalue in the overlap matrix is 2.5446568031E-01.
  Using Symmetric Orthogonalization.

  SCF Guess: Superposition of Atomic Densities via on-the-fly atomic UHF.

  ==> Iterations <==

                           Total Energy        Delta E     RMS |[F,P]|

   @DF-RHF iter SAD:   -54.58562506171482   -5.45856e+01   0.00000e+00 
   @DF-RHF iter   1:   -55.42957380017457   -8.43949e-01   2.08005e-02 DIIS
   @DF-RHF iter   2:   -55.44933997575377   -1.97662e-02   3.93998e-03 DIIS
   @DF-RHF iter   3:   -55.44993006299882   -5.90087e-04   8.13904e-04 DIIS
   @DF-RHF iter   4:   -55.44996535332226   -3.52903e-05   7.59270e-06 DIIS
   @DF-RHF iter   5:   -55.44996535917190   -5.84964e-09   9.86692e-07 DIIS
  Energy and wave function converged.


  ==> Post-Iterations <==

    Orbital Energies [Eh]
    ---------------------

    Doubly Occupied:                                                      

       1A    -15.300501     2A     -1.100051     3A     -0.584614  
       4A     -0.584614     5A     -0.351735  

    Virtual:                                                              

       6A      0.663673     7A      0.759629     8A      0.759629  

    Final Occupation by Irrep:
              A 
    DOCC [     5 ]

  @DF-RHF Final Energy:   -55.44996535917190

   => Energetics <=

    Nuclear Repulsion Energy =             12.2232912008511363
    One-Electron Energy =                 -99.5034370119357447
    Two-Electron Energy =                  31.8301804519127138
    Total Energy =                        -55.4499653591718982

Computation Completed


Properties will be evaluated at   0.000000,   0.000000,   0.000000 [a0]

Properties computed using the SCF density matrix

  Nuclear Dipole Moment: [e a0]
     X:    38.1236      Y:    32.8261      Z:   -10.3526

  Electronic Dipole Moment: [e a0]
     X:   -38.5185      Y:   -32.4312      Z:     9.9577

  Dipole Moment: [e a0]
     X:    -0.3949      Y:     0.3949      Z:    -0.3949     Total:     0.6840

  Dipole Moment: [D]
     X:    -1.0038      Y:     1.0038      Z:    -1.0038     Total:     1.7386


*** tstop() called on Vanadium at Thu Sep 26 11:47:13 2019
Module time:
	user time   =       8.52 seconds =       0.14 minutes
	system time =       1.85 seconds =       0.03 minutes
	total time  =          2 seconds =       0.03 minutes
Total time:
	user time   =       8.52 seconds =       0.14 minutes
	system time =       1.85 seconds =       0.03 minutes
	total time  =          2 seconds =       0.03 minutes

       N-Body: Complex Energy (fragments = (2,), basis = (2,):   -55.44996535917190)

       N-Body: Computing complex (2/4) with fragments (2,) in the basis of fragments (1, 2).


*** tstart() called on Vanadium
*** at Thu Sep 26 11:47:13 2019

   => Loading Basis Set <=

    Name: STO-3G
    Role: ORBITAL
    Keyword: BASIS
    atoms 1, 5     entry N          line    71 file /home/carlosborca/miniconda3/envs/CrystaLattE/share/psi4/basis/sto-3g.gbs 
    atoms 2-4, 6-8 entry H          line    19 file /home/carlosborca/miniconda3/envs/CrystaLattE/share/psi4/basis/sto-3g.gbs 


         ---------------------------------------------------------
                                   SCF
               by Justin Turney, Rob Parrish, Andy Simmonett
                          and Daniel G. A. Smith
                              RHF Reference
                        8 Threads,    476 MiB Core
         ---------------------------------------------------------

  ==> Geometry <==

    Molecular point group: c1
    Full point group: C1

    Geometry (in Bohr), charge = 0, multiplicity = 1:

       Center              X                  Y                   Z               Mass       
    ------------   -----------------  -----------------  -----------------  -----------------
      Gh(N)          -1.681155160000    -1.681155160000    -1.681155160000    14.003074004430
      Gh(H)          -2.600263150000    -0.147368400000    -1.134342120000     1.007825032230
      Gh(H)          -1.134342120000    -2.600263150000    -0.147368400000     1.007825032230
      Gh(H)          -0.147368400000    -1.134342120000    -2.600263150000     1.007825032230
         N            3.928511960000     3.166464780000    -0.919107990000    14.003074004430
         H            2.394725200000     3.713277820000     0.000000000000     1.007825032230
         H            4.847619940000     4.700251540000    -1.465921030000     1.007825032230
         H            3.381698920000     2.247356790000    -2.452894750000     1.007825032230

  Running in c1 symmetry.

  Rotational constants: A =      0.81389  B =      0.11262  C =      0.10111 [cm^-1]
  Rotational constants: A =  24399.66655  B =   3376.30827  C =   3031.20899 [MHz]
  Nuclear repulsion =   12.223291200851136

  Charge       = 0
  Multiplicity = 1
  Electrons    = 10
  Nalpha       = 5
  Nbeta        = 5

  ==> Algorithm <==

  SCF Algorithm Type is DF.
  DIIS enabled.
  MOM disabled.
  Fractional occupation disabled.
  Guess Type is SAD.
  Energy threshold   = 1.00e-08
  Density threshold  = 1.00e-06
  Integral threshold = 0.00e+00

  ==> Primary Basis <==

  Basis Set: STO-3G
    Blend: STO-3G
    Number of shells: 12
    Number of basis function: 16
    Number of Cartesian functions: 16
    Spherical Harmonics?: true
    Max angular momentum: 1

   => Loading Basis Set <=

    Name: (STO-3G AUX)
    Role: JKFIT
    Keyword: DF_BASIS_SCF
    atoms 1, 5     entry N          line   263 file /home/carlosborca/miniconda3/envs/CrystaLattE/share/psi4/basis/def2-svp-jkfit.gbs 
    atoms 2-4, 6-8 entry H          line    23 file /home/carlosborca/miniconda3/envs/CrystaLattE/share/psi4/basis/def2-svp-jkfit.gbs 

  ==> Pre-Iterations <==

   -------------------------------------------------------
    Irrep   Nso     Nmo     Nalpha   Nbeta   Ndocc  Nsocc
   -------------------------------------------------------
     A         16      16       0       0       0       0
   -------------------------------------------------------
    Total      16      16       5       5       5       0
   -------------------------------------------------------

  ==> Integral Setup <==

  DFHelper Memory: AOs need 0.001 GiB; user supplied 0.349 GiB. Using in-core AOs.

  ==> MemDFJK: Density-Fitted J/K Matrices <==

    J tasked:                   Yes
    K tasked:                   Yes
    wK tasked:                   No
    OpenMP threads:               8
    Memory [MiB]:               357
    Algorithm:                 Core
    Schwarz Cutoff:           1E-12
    Mask sparsity (%):       0.7812
    Fitting Condition:        1E-10

   => Auxiliary Basis Set <=

  Basis Set: (STO-3G AUX)
    Blend: DEF2-SVP-JKFIT
    Number of shells: 86
    Number of basis function: 262
    Number of Cartesian functions: 306
    Spherical Harmonics?: true
    Max angular momentum: 4

  Minimum eigenvalue in the overlap matrix is 2.4902476447E-01.
  Using Symmetric Orthogonalization.

  SCF Guess: Superposition of Atomic Densities via on-the-fly atomic UHF.

  ==> Iterations <==

                           Total Energy        Delta E     RMS |[F,P]|

   @DF-RHF iter SAD:   -54.58562426579657   -5.45856e+01   0.00000e+00 
   @DF-RHF iter   1:   -55.42961531242077   -8.43991e-01   1.03998e-02 DIIS
   @DF-RHF iter   2:   -55.44937542083127   -1.97601e-02   1.97077e-03 DIIS
   @DF-RHF iter   3:   -55.44996585920976   -5.90438e-04   4.07000e-04 DIIS
   @DF-RHF iter   4:   -55.45000116392031   -3.53047e-05   3.95201e-06 DIIS
   @DF-RHF iter   5:   -55.45000116979102   -5.87072e-09   9.39741e-07 DIIS
  Energy and wave function converged.


  ==> Post-Iterations <==

    Orbital Energies [Eh]
    ---------------------

    Doubly Occupied:                                                      

       1A    -15.300605     2A     -1.100127     3A     -0.584689  
       4A     -0.584673     5A     -0.351801  

    Virtual:                                                              

       6A      0.429958     7A      0.662597     8A      0.756921  
       9A      0.759545    10A      0.945151    11A      0.950794  
      12A      1.337526    13A      2.206283    14A      2.699727  
      15A      2.702101    16A     23.912532  

    Final Occupation by Irrep:
              A 
    DOCC [     5 ]

  @DF-RHF Final Energy:   -55.45000116979102

   => Energetics <=

    Nuclear Repulsion Energy =             12.2232912008511363
    One-Electron Energy =                 -99.5028067039810082
    Two-Electron Energy =                  31.8295143333388459
    Total Energy =                        -55.4500011697910224

Computation Completed


Properties will be evaluated at   0.000000,   0.000000,   0.000000 [a0]

Properties computed using the SCF density matrix

  Nuclear Dipole Moment: [e a0]
     X:    38.1236      Y:    32.8261      Z:   -10.3526

  Electronic Dipole Moment: [e a0]
     X:   -38.5178      Y:   -32.4304      Z:     9.9579

  Dipole Moment: [e a0]
     X:    -0.3942      Y:     0.3957      Z:    -0.3947     Total:     0.6840

  Dipole Moment: [D]
     X:    -1.0020      Y:     1.0059      Z:    -1.0032     Total:     1.7384


*** tstop() called on Vanadium at Thu Sep 26 11:47:15 2019
Module time:
	user time   =       9.64 seconds =       0.16 minutes
	system time =       1.71 seconds =       0.03 minutes
	total time  =          2 seconds =       0.03 minutes
Total time:
	user time   =      18.36 seconds =       0.31 minutes
	system time =       3.60 seconds =       0.06 minutes
	total time  =          4 seconds =       0.07 minutes

       N-Body: Complex Energy (fragments = (2,), basis = (1, 2):   -55.45000116979102)

       N-Body: Computing complex (3/4) with fragments (1,) in the basis of fragments (1, 2).


*** tstart() called on Vanadium
*** at Thu Sep 26 11:47:15 2019

   => Loading Basis Set <=

    Name: STO-3G
    Role: ORBITAL
    Keyword: BASIS
    atoms 1, 5     entry N          line    71 file /home/carlosborca/miniconda3/envs/CrystaLattE/share/psi4/basis/sto-3g.gbs 
    atoms 2-4, 6-8 entry H          line    19 file /home/carlosborca/miniconda3/envs/CrystaLattE/share/psi4/basis/sto-3g.gbs 


         ---------------------------------------------------------
                                   SCF
               by Justin Turney, Rob Parrish, Andy Simmonett
                          and Daniel G. A. Smith
                              RHF Reference
                        8 Threads,    476 MiB Core
         ---------------------------------------------------------

  ==> Geometry <==

    Molecular point group: c1
    Full point group: C1

    Geometry (in Bohr), charge = 0, multiplicity = 1:

       Center              X                  Y                   Z               Mass       
    ------------   -----------------  -----------------  -----------------  -----------------
         N           -1.681155160000    -1.681155160000    -1.681155160000    14.003074004430
         H           -2.600263150000    -0.147368400000    -1.134342120000     1.007825032230
         H           -1.134342120000    -2.600263150000    -0.147368400000     1.007825032230
         H           -0.147368400000    -1.134342120000    -2.600263150000     1.007825032230
      Gh(N)           3.928511960000     3.166464780000    -0.919107990000    14.003074004430
      Gh(H)           2.394725200000     3.713277820000     0.000000000000     1.007825032230
      Gh(H)           4.847619940000     4.700251540000    -1.465921030000     1.007825032230
      Gh(H)           3.381698920000     2.247356790000    -2.452894750000     1.007825032230

  Running in c1 symmetry.

  Rotational constants: A =      0.81389  B =      0.11262  C =      0.10111 [cm^-1]
  Rotational constants: A =  24399.66655  B =   3376.30827  C =   3031.20899 [MHz]
  Nuclear repulsion =   12.223291189591457

  Charge       = 0
  Multiplicity = 1
  Electrons    = 10
  Nalpha       = 5
  Nbeta        = 5

  ==> Algorithm <==

  SCF Algorithm Type is DF.
  DIIS enabled.
  MOM disabled.
  Fractional occupation disabled.
  Guess Type is SAD.
  Energy threshold   = 1.00e-08
  Density threshold  = 1.00e-06
  Integral threshold = 0.00e+00

  ==> Primary Basis <==

  Basis Set: STO-3G
    Blend: STO-3G
    Number of shells: 12
    Number of basis function: 16
    Number of Cartesian functions: 16
    Spherical Harmonics?: true
    Max angular momentum: 1

   => Loading Basis Set <=

    Name: (STO-3G AUX)
    Role: JKFIT
    Keyword: DF_BASIS_SCF
    atoms 1, 5     entry N          line   263 file /home/carlosborca/miniconda3/envs/CrystaLattE/share/psi4/basis/def2-svp-jkfit.gbs 
    atoms 2-4, 6-8 entry H          line    23 file /home/carlosborca/miniconda3/envs/CrystaLattE/share/psi4/basis/def2-svp-jkfit.gbs 

  ==> Pre-Iterations <==

   -------------------------------------------------------
    Irrep   Nso     Nmo     Nalpha   Nbeta   Ndocc  Nsocc
   -------------------------------------------------------
     A         16      16       0       0       0       0
   -------------------------------------------------------
    Total      16      16       5       5       5       0
   -------------------------------------------------------

  ==> Integral Setup <==

  DFHelper Memory: AOs need 0.001 GiB; user supplied 0.349 GiB. Using in-core AOs.

  ==> MemDFJK: Density-Fitted J/K Matrices <==

    J tasked:                   Yes
    K tasked:                   Yes
    wK tasked:                   No
    OpenMP threads:               8
    Memory [MiB]:               357
    Algorithm:                 Core
    Schwarz Cutoff:           1E-12
    Mask sparsity (%):       0.7812
    Fitting Condition:        1E-10

   => Auxiliary Basis Set <=

  Basis Set: (STO-3G AUX)
    Blend: DEF2-SVP-JKFIT
    Number of shells: 86
    Number of basis function: 262
    Number of Cartesian functions: 306
    Spherical Harmonics?: true
    Max angular momentum: 4

  Minimum eigenvalue in the overlap matrix is 2.4902476447E-01.
  Using Symmetric Orthogonalization.

  SCF Guess: Superposition of Atomic Densities via on-the-fly atomic UHF.

  ==> Iterations <==

                           Total Energy        Delta E     RMS |[F,P]|

   @DF-RHF iter SAD:   -54.58562192825404   -5.45856e+01   0.00000e+00 
   @DF-RHF iter   1:   -55.42964563938864   -8.44024e-01   1.03981e-02 DIIS
   @DF-RHF iter   2:   -55.44939821963962   -1.97526e-02   1.97164e-03 DIIS
   @DF-RHF iter   3:   -55.44998942653410   -5.91207e-04   4.07189e-04 DIIS
   @DF-RHF iter   4:   -55.45002478155412   -3.53550e-05   3.99658e-06 DIIS
   @DF-RHF iter   5:   -55.45002478765326   -6.09914e-09   8.96497e-07 DIIS
  Energy and wave function converged.


  ==> Post-Iterations <==

    Orbital Energies [Eh]
    ---------------------

    Doubly Occupied:                                                      

       1A    -15.300656     2A     -1.100153     3A     -0.584715  
       4A     -0.584698     5A     -0.351820  

    Virtual:                                                              

       6A      0.423025     7A      0.662567     8A      0.755938  
       9A      0.759496    10A      0.938393    11A      0.945960  
      12A      1.330375    13A      2.200237    14A      2.692941  
      15A      2.694531    16A     23.905682  

    Final Occupation by Irrep:
              A 
    DOCC [     5 ]

  @DF-RHF Final Energy:   -55.45002478765326

   => Energetics <=

    Nuclear Repulsion Energy =             12.2232911895914569
    One-Electron Energy =                 -99.5025559725713578
    Two-Electron Energy =                  31.8292399953266525
    Total Energy =                        -55.4500247876532555

Computation Completed


Properties will be evaluated at   0.000000,   0.000000,   0.000000 [a0]

Properties computed using the SCF density matrix

  Nuclear Dipole Moment: [e a0]
     X:   -15.6501      Y:   -15.6501      Z:   -15.6501

  Electronic Dipole Moment: [e a0]
     X:    16.0439      Y:    16.0441      Z:    16.0452

  Dipole Moment: [e a0]
     X:     0.3939      Y:     0.3941      Z:     0.3951     Total:     0.6830

  Dipole Moment: [D]
     X:     1.0011      Y:     1.0016      Z:     1.0043     Total:     1.7361


*** tstop() called on Vanadium at Thu Sep 26 11:47:18 2019
Module time:
	user time   =       9.50 seconds =       0.16 minutes
	system time =       1.75 seconds =       0.03 minutes
	total time  =          3 seconds =       0.05 minutes
Total time:
	user time   =      28.05 seconds =       0.47 minutes
	system time =       5.39 seconds =       0.09 minutes
	total time  =          7 seconds =       0.12 minutes

       N-Body: Complex Energy (fragments = (1,), basis = (1, 2):   -55.45002478765326)

       N-Body: Computing complex (4/4) with fragments (1,) in the basis of fragments (1,).


*** tstart() called on Vanadium
*** at Thu Sep 26 11:47:18 2019

   => Loading Basis Set <=

    Name: STO-3G
    Role: ORBITAL
    Keyword: BASIS
    atoms 1   entry N          line    71 file /home/carlosborca/miniconda3/envs/CrystaLattE/share/psi4/basis/sto-3g.gbs 
    atoms 2-4 entry H          line    19 file /home/carlosborca/miniconda3/envs/CrystaLattE/share/psi4/basis/sto-3g.gbs 


         ---------------------------------------------------------
                                   SCF
               by Justin Turney, Rob Parrish, Andy Simmonett
                          and Daniel G. A. Smith
                              RHF Reference
                        8 Threads,    476 MiB Core
         ---------------------------------------------------------

  ==> Geometry <==

    Molecular point group: c1
    Full point group: C1

    Geometry (in Bohr), charge = 0, multiplicity = 1:

       Center              X                  Y                   Z               Mass       
    ------------   -----------------  -----------------  -----------------  -----------------
         N           -1.681155160000    -1.681155160000    -1.681155160000    14.003074004430
         H           -2.600263150000    -0.147368400000    -1.134342120000     1.007825032230
         H           -1.134342120000    -2.600263150000    -0.147368400000     1.007825032230
         H           -0.147368400000    -1.134342120000    -2.600263150000     1.007825032230

  Running in c1 symmetry.

  Rotational constants: A =      6.53545  B =      0.43458  C =      0.43458 [cm^-1]
  Rotational constants: A = 195927.87342  B =  13028.43972  C =  13028.43972 [MHz]
  Nuclear repulsion =   12.223291189591457

  Charge       = 0
  Multiplicity = 1
  Electrons    = 10
  Nalpha       = 5
  Nbeta        = 5

  ==> Algorithm <==

  SCF Algorithm Type is DF.
  DIIS enabled.
  MOM disabled.
  Fractional occupation disabled.
  Guess Type is SAD.
  Energy threshold   = 1.00e-08
  Density threshold  = 1.00e-06
  Integral threshold = 0.00e+00

  ==> Primary Basis <==

  Basis Set: STO-3G
    Blend: STO-3G
    Number of shells: 6
    Number of basis function: 8
    Number of Cartesian functions: 8
    Spherical Harmonics?: true
    Max angular momentum: 1

   => Loading Basis Set <=

    Name: (STO-3G AUX)
    Role: JKFIT
    Keyword: DF_BASIS_SCF
    atoms 1   entry N          line   263 file /home/carlosborca/miniconda3/envs/CrystaLattE/share/psi4/basis/def2-svp-jkfit.gbs 
    atoms 2-4 entry H          line    23 file /home/carlosborca/miniconda3/envs/CrystaLattE/share/psi4/basis/def2-svp-jkfit.gbs 

  ==> Pre-Iterations <==

   -------------------------------------------------------
    Irrep   Nso     Nmo     Nalpha   Nbeta   Ndocc  Nsocc
   -------------------------------------------------------
     A          8       8       0       0       0       0
   -------------------------------------------------------
    Total       8       8       5       5       5       0
   -------------------------------------------------------

  ==> Integral Setup <==

  DFHelper Memory: AOs need 0.000 GiB; user supplied 0.349 GiB. Using in-core AOs.

  ==> MemDFJK: Density-Fitted J/K Matrices <==

    J tasked:                   Yes
    K tasked:                   Yes
    wK tasked:                   No
    OpenMP threads:               8
    Memory [MiB]:               357
    Algorithm:                 Core
    Schwarz Cutoff:           1E-12
    Mask sparsity (%):       0.0000
    Fitting Condition:        1E-10

   => Auxiliary Basis Set <=

  Basis Set: (STO-3G AUX)
    Blend: DEF2-SVP-JKFIT
    Number of shells: 43
    Number of basis function: 131
    Number of Cartesian functions: 153
    Spherical Harmonics?: true
    Max angular momentum: 4

  Minimum eigenvalue in the overlap matrix is 2.5446568092E-01.
  Using Symmetric Orthogonalization.

  SCF Guess: Superposition of Atomic Densities via on-the-fly atomic UHF.

  ==> Iterations <==

                           Total Energy        Delta E     RMS |[F,P]|

   @DF-RHF iter SAD:   -54.58562505887945   -5.45856e+01   0.00000e+00 
   @DF-RHF iter   1:   -55.42957380035033   -8.43949e-01   2.08005e-02 DIIS
   @DF-RHF iter   2:   -55.44933997592631   -1.97662e-02   3.93998e-03 DIIS
   @DF-RHF iter   3:   -55.44993006317267   -5.90087e-04   8.13904e-04 DIIS
   @DF-RHF iter   4:   -55.44996535349630   -3.52903e-05   7.59270e-06 DIIS
   @DF-RHF iter   5:   -55.44996535934587   -5.84957e-09   9.86692e-07 DIIS
  Energy and wave function converged.


  ==> Post-Iterations <==

    Orbital Energies [Eh]
    ---------------------

    Doubly Occupied:                                                      

       1A    -15.300501     2A     -1.100051     3A     -0.584614  
       4A     -0.584614     5A     -0.351735  

    Virtual:                                                              

       6A      0.663673     7A      0.759629     8A      0.759629  

    Final Occupation by Irrep:
              A 
    DOCC [     5 ]

  @DF-RHF Final Energy:   -55.44996535934587

   => Energetics <=

    Nuclear Repulsion Energy =             12.2232911895914569
    One-Electron Energy =                 -99.5034369941980970
    Two-Electron Energy =                  31.8301804452607584
    Total Energy =                        -55.4499653593458746

Computation Completed


Properties will be evaluated at   0.000000,   0.000000,   0.000000 [a0]

Properties computed using the SCF density matrix

  Nuclear Dipole Moment: [e a0]
     X:   -15.6501      Y:   -15.6501      Z:   -15.6501

  Electronic Dipole Moment: [e a0]
     X:    16.0450      Y:    16.0450      Z:    16.0450

  Dipole Moment: [e a0]
     X:     0.3949      Y:     0.3949      Z:     0.3949     Total:     0.6840

  Dipole Moment: [D]
     X:     1.0038      Y:     1.0038      Z:     1.0038     Total:     1.7386


*** tstop() called on Vanadium at Thu Sep 26 11:47:20 2019
Module time:
	user time   =      11.36 seconds =       0.19 minutes
	system time =       2.62 seconds =       0.04 minutes
	total time  =          2 seconds =       0.03 minutes
Total time:
	user time   =      39.63 seconds =       0.66 minutes
	system time =       8.05 seconds =       0.13 minutes
	total time  =          9 seconds =       0.15 minutes

       N-Body: Complex Energy (fragments = (1,), basis = (1,):   -55.44996535934587)

   ==> N-Body: Now computing 2-body complexes <==


       N-Body: Computing complex (1/1) with fragments (1, 2) in the basis of fragments (1, 2).


*** tstart() called on Vanadium
*** at Thu Sep 26 11:47:20 2019

   => Loading Basis Set <=

    Name: STO-3G
    Role: ORBITAL
    Keyword: BASIS
    atoms 1, 5     entry N          line    71 file /home/carlosborca/miniconda3/envs/CrystaLattE/share/psi4/basis/sto-3g.gbs 
    atoms 2-4, 6-8 entry H          line    19 file /home/carlosborca/miniconda3/envs/CrystaLattE/share/psi4/basis/sto-3g.gbs 


         ---------------------------------------------------------
                                   SCF
               by Justin Turney, Rob Parrish, Andy Simmonett
                          and Daniel G. A. Smith
                              RHF Reference
                        8 Threads,    476 MiB Core
         ---------------------------------------------------------

  ==> Geometry <==

    Molecular point group: c1
    Full point group: C1

    Geometry (in Bohr), charge = 0, multiplicity = 1:

       Center              X                  Y                   Z               Mass       
    ------------   -----------------  -----------------  -----------------  -----------------
         N           -1.681155160000    -1.681155160000    -1.681155160000    14.003074004430
         H           -2.600263150000    -0.147368400000    -1.134342120000     1.007825032230
         H           -1.134342120000    -2.600263150000    -0.147368400000     1.007825032230
         H           -0.147368400000    -1.134342120000    -2.600263150000     1.007825032230
         N            3.928511960000     3.166464780000    -0.919107990000    14.003074004430
         H            2.394725200000     3.713277820000     0.000000000000     1.007825032230
         H            4.847619940000     4.700251540000    -1.465921030000     1.007825032230
         H            3.381698920000     2.247356790000    -2.452894750000     1.007825032230

  Running in c1 symmetry.

  Rotational constants: A =      0.81389  B =      0.11262  C =      0.10111 [cm^-1]
  Rotational constants: A =  24399.66655  B =   3376.30827  C =   3031.20899 [MHz]
  Nuclear repulsion =   38.181027420838156

  Charge       = 0
  Multiplicity = 1
  Electrons    = 20
  Nalpha       = 10
  Nbeta        = 10

  ==> Algorithm <==

  SCF Algorithm Type is DF.
  DIIS enabled.
  MOM disabled.
  Fractional occupation disabled.
  Guess Type is SAD.
  Energy threshold   = 1.00e-08
  Density threshold  = 1.00e-06
  Integral threshold = 0.00e+00

  ==> Primary Basis <==

  Basis Set: STO-3G
    Blend: STO-3G
    Number of shells: 12
    Number of basis function: 16
    Number of Cartesian functions: 16
    Spherical Harmonics?: true
    Max angular momentum: 1

   => Loading Basis Set <=

    Name: (STO-3G AUX)
    Role: JKFIT
    Keyword: DF_BASIS_SCF
    atoms 1, 5     entry N          line   263 file /home/carlosborca/miniconda3/envs/CrystaLattE/share/psi4/basis/def2-svp-jkfit.gbs 
    atoms 2-4, 6-8 entry H          line    23 file /home/carlosborca/miniconda3/envs/CrystaLattE/share/psi4/basis/def2-svp-jkfit.gbs 

  ==> Pre-Iterations <==

   -------------------------------------------------------
    Irrep   Nso     Nmo     Nalpha   Nbeta   Ndocc  Nsocc
   -------------------------------------------------------
     A         16      16       0       0       0       0
   -------------------------------------------------------
    Total      16      16      10      10      10       0
   -------------------------------------------------------

  ==> Integral Setup <==

  DFHelper Memory: AOs need 0.001 GiB; user supplied 0.349 GiB. Using in-core AOs.

  ==> MemDFJK: Density-Fitted J/K Matrices <==

    J tasked:                   Yes
    K tasked:                   Yes
    wK tasked:                   No
    OpenMP threads:               8
    Memory [MiB]:               357
    Algorithm:                 Core
    Schwarz Cutoff:           1E-12
    Mask sparsity (%):       0.7812
    Fitting Condition:        1E-10

   => Auxiliary Basis Set <=

  Basis Set: (STO-3G AUX)
    Blend: DEF2-SVP-JKFIT
    Number of shells: 86
    Number of basis function: 262
    Number of Cartesian functions: 306
    Spherical Harmonics?: true
    Max angular momentum: 4

  Minimum eigenvalue in the overlap matrix is 2.4902476447E-01.
  Using Symmetric Orthogonalization.

  SCF Guess: Superposition of Atomic Densities via on-the-fly atomic UHF.

  ==> Iterations <==

                           Total Energy        Delta E     RMS |[F,P]|

   @DF-RHF iter SAD:  -109.17187536361399   -1.09172e+02   0.00000e+00 
   @DF-RHF iter   1:  -110.85868685651447   -1.68681e+00   1.47404e-02 DIIS
   @DF-RHF iter   2:  -110.89833834745339   -3.96515e-02   2.79577e-03 DIIS
   @DF-RHF iter   3:  -110.89952567303531   -1.18733e-03   5.76810e-04 DIIS
   @DF-RHF iter   4:  -110.89959659941233   -7.09264e-05   6.16741e-06 DIIS
   @DF-RHF iter   5:  -110.89959661335405   -1.39417e-08   1.19982e-06 DIIS
   @DF-RHF iter   6:  -110.89959661386980   -5.15755e-10   1.49399e-07 DIIS
  Energy and wave function converged.


  ==> Post-Iterations <==

    Orbital Energies [Eh]
    ---------------------

    Doubly Occupied:                                                      

       1A    -15.309488     2A    -15.302774     3A     -1.109192  
       4A     -1.102065     5A     -0.596255     6A     -0.593544  
       7A     -0.586607     8A     -0.584627     9A     -0.360547  
      10A     -0.353674  

    Virtual:                                                              

      11A      0.631414    12A      0.679403    13A      0.733311  
      14A      0.750523    15A      0.758755    16A      0.784199  

    Final Occupation by Irrep:
              A 
    DOCC [    10 ]

  @DF-RHF Final Energy:  -110.89959661386980

   => Energetics <=

    Nuclear Repulsion Energy =             38.1810274208381557
    One-Electron Energy =                -226.3637036476458491
    Two-Electron Energy =                  77.2830796129378967
    Total Energy =                       -110.8995966138698037

Computation Completed


Properties will be evaluated at   0.000000,   0.000000,   0.000000 [a0]

Properties computed using the SCF density matrix

  Nuclear Dipole Moment: [e a0]
     X:    22.4736      Y:    17.1761      Z:   -26.0026

  Electronic Dipole Moment: [e a0]
     X:   -22.4669      Y:   -16.3865      Z:    26.0088

  Dipole Moment: [e a0]
     X:     0.0067      Y:     0.7896      Z:     0.0062     Total:     0.7897

  Dipole Moment: [D]
     X:     0.0170      Y:     2.0070      Z:     0.0158     Total:     2.0072


*** tstop() called on Vanadium at Thu Sep 26 11:47:23 2019
Module time:
	user time   =       8.94 seconds =       0.15 minutes
	system time =       1.63 seconds =       0.03 minutes
	total time  =          3 seconds =       0.05 minutes
Total time:
	user time   =      48.77 seconds =       0.81 minutes
	system time =       9.71 seconds =       0.16 minutes
	total time  =         12 seconds =       0.20 minutes

       N-Body: Complex Energy (fragments = (1, 2), basis = (1, 2):  -110.89959661386980)

   ==> N-Body: Counterpoise Corrected (CP) energies <==

   n-Body     Total Energy [Eh]       I.E. [kcal/mol]      Delta [kcal/mol]
        1     -110.899930718518        0.000000000000        0.000000000000
        2     -110.899501374943        0.269417160493        0.269417160493

   => Loading Basis Set <=

    Name: DEF2-SVP
    Role: ORBITAL
    Keyword: BASIS
    atoms 1, 5     entry N          line   110 file /home/carlosborca/miniconda3/envs/CrystaLattE/share/psi4/basis/def2-svp.gbs 
    atoms 2-4, 6-8 entry H          line    15 file /home/carlosborca/miniconda3/envs/CrystaLattE/share/psi4/basis/def2-svp.gbs 


    Psi4 stopped on: Thursday, 26 September 2019 11:47AM
    Psi4 wall time for execution: 0:00:12.17

*** Psi4 exiting successfully. Buy a developer a beer!
