
    -----------------------------------------------------------------------
          Psi4: An Open-Source Ab Initio Electronic Structure Package
                               Psi4 1.4a2.dev37 

                         Git: Rev {master} a6305a1 


    R. M. Parrish, L. A. Burns, D. G. A. Smith, A. C. Simmonett,
    A. E. DePrince III, E. G. Hohenstein, U. Bozkaya, A. Yu. Sokolov,
    R. Di Remigio, R. M. Richard, J. F. Gonthier, A. M. James,
    H. R. McAlexander, A. Kumar, M. Saitow, X. Wang, B. P. Pritchard,
    P. Verma, H. F. Schaefer III, K. Patkowski, R. A. King, E. F. Valeev,
    F. A. Evangelista, J. M. Turney, T. D. Crawford, and C. D. Sherrill,
    J. Chem. Theory Comput. 13(7) pp 3185--3197 (2017).
    (doi: 10.1021/acs.jctc.7b00174)


                         Additional Contributions by
    P. Kraus, H. Kruse, M. H. Lechner, M. C. Schieber, R. A. Shaw,
    A. Alenaizan, R. Galvelis, Z. L. Glick, S. Lehtola, and J. P. Misiewicz

    -----------------------------------------------------------------------


    Psi4 started on: Thursday, 26 September 2019 04:00PM

    Process ID: 1622
    Host:       Vanadium
    PSIDATADIR: /home/carlosborca/miniconda3/envs/CrystaLattE/share/psi4
    Memory:     500.0 MiB
    Threads:    4
    
  ==> Input File <==

--------------------------------------------------------------------------
# PSI4 file produced by CrystaLattE

# Psithon input for N-mer:      3mer-0+1+2
# Number of replicas:           3
# Priority index for input:     7.57085462e-07
# Minimum monomer separations:  2.428  2.588  2.588 
# COM priority index for input: 2.37821892e-08
# Minimum COM separations:      3.418  3.883  3.883 

memory 500 MB

molecule Trimer_0_1_2 {
  N           -1.68115516      -1.68115516      -1.68115516 
  H           -2.60026315      -0.14736840      -1.13434212 
  H           -1.13434212      -2.60026315      -0.14736840 
  H           -0.14736840      -1.13434212      -2.60026315 
--
  N            3.92851196       3.16646478      -0.91910799 
  H            2.39472520       3.71327782       0.00000000 
  H            4.84761994       4.70025154      -1.46592103 
  H            3.38169892       2.24735679      -2.45289475 
--
  N            3.16646478      -0.91910799       3.92851196 
  H            2.24735679      -2.45289475       3.38169892 
  H            3.71327782       0.00000000       2.39472520 
  H            4.70025154      -1.46592103       4.84761994 
units = au
no_com
no_reorient
}

set {
  e_convergence 8
  scf_type df
  mp2_type df
  cc_type df
  freeze_core true
}

energy('scf/STO-3G', bsse_type = 'nocp')

--------------------------------------------------------------------------

  Memory set to 476.837 MiB by Python driver.


   ===> N-Body Interaction Abacus <===
        BSSE Treatment:                     nocp
        Number of 1-body computations:     3
        Number of 2-body computations:     3
        Number of 3-body computations:     1

   ==> N-Body: Now computing 1-body complexes <==


       N-Body: Computing complex (1/3) with fragments (3,) in the basis of fragments (3,).


*** tstart() called on Vanadium
*** at Thu Sep 26 16:00:30 2019

   => Loading Basis Set <=

    Name: STO-3G
    Role: ORBITAL
    Keyword: BASIS
    atoms 1   entry N          line    71 file /home/carlosborca/miniconda3/envs/CrystaLattE/share/psi4/basis/sto-3g.gbs 
    atoms 2-4 entry H          line    19 file /home/carlosborca/miniconda3/envs/CrystaLattE/share/psi4/basis/sto-3g.gbs 


         ---------------------------------------------------------
                                   SCF
               by Justin Turney, Rob Parrish, Andy Simmonett
                          and Daniel G. A. Smith
                              RHF Reference
                        4 Threads,    476 MiB Core
         ---------------------------------------------------------

  ==> Geometry <==

    Molecular point group: c1
    Full point group: C1

    Geometry (in Bohr), charge = 0, multiplicity = 1:

       Center              X                  Y                   Z               Mass       
    ------------   -----------------  -----------------  -----------------  -----------------
         N            3.166464780000    -0.919107990000     3.928511960000    14.003074004430
         H            2.247356790000    -2.452894750000     3.381698920000     1.007825032230
         H            3.713277820000     0.000000000000     2.394725200000     1.007825032230
         H            4.700251540000    -1.465921030000     4.847619940000     1.007825032230

  Running in c1 symmetry.

  Rotational constants: A =     10.50680  B =      0.13254  C =      0.13153 [cm^-1]
  Rotational constants: A = 314985.91418  B =   3973.38736  C =   3943.16163 [MHz]
  Nuclear repulsion =   12.223291200851136

  Charge       = 0
  Multiplicity = 1
  Electrons    = 10
  Nalpha       = 5
  Nbeta        = 5

  ==> Algorithm <==

  SCF Algorithm Type is DF.
  DIIS enabled.
  MOM disabled.
  Fractional occupation disabled.
  Guess Type is SAD.
  Energy threshold   = 1.00e-08
  Density threshold  = 1.00e-06
  Integral threshold = 0.00e+00

  ==> Primary Basis <==

  Basis Set: STO-3G
    Blend: STO-3G
    Number of shells: 6
    Number of basis function: 8
    Number of Cartesian functions: 8
    Spherical Harmonics?: true
    Max angular momentum: 1

   => Loading Basis Set <=

    Name: (STO-3G AUX)
    Role: JKFIT
    Keyword: DF_BASIS_SCF
    atoms 1   entry N          line   263 file /home/carlosborca/miniconda3/envs/CrystaLattE/share/psi4/basis/def2-svp-jkfit.gbs 
    atoms 2-4 entry H          line    23 file /home/carlosborca/miniconda3/envs/CrystaLattE/share/psi4/basis/def2-svp-jkfit.gbs 

  ==> Pre-Iterations <==

   -------------------------------------------------------
    Irrep   Nso     Nmo     Nalpha   Nbeta   Ndocc  Nsocc
   -------------------------------------------------------
     A          8       8       0       0       0       0
   -------------------------------------------------------
    Total       8       8       5       5       5       0
   -------------------------------------------------------

  ==> Integral Setup <==

  DFHelper Memory: AOs need 0.000 GiB; user supplied 0.349 GiB. Using in-core AOs.

  ==> MemDFJK: Density-Fitted J/K Matrices <==

    J tasked:                   Yes
    K tasked:                   Yes
    wK tasked:                   No
    OpenMP threads:               4
    Memory [MiB]:               357
    Algorithm:                 Core
    Schwarz Cutoff:           1E-12
    Mask sparsity (%):       0.0000
    Fitting Condition:        1E-10

   => Auxiliary Basis Set <=

  Basis Set: (STO-3G AUX)
    Blend: DEF2-SVP-JKFIT
    Number of shells: 43
    Number of basis function: 131
    Number of Cartesian functions: 153
    Spherical Harmonics?: true
    Max angular momentum: 4

  Minimum eigenvalue in the overlap matrix is 2.5446568031E-01.
  Using Symmetric Orthogonalization.

  SCF Guess: Superposition of Atomic Densities via on-the-fly atomic UHF.

  ==> Iterations <==

                           Total Energy        Delta E     RMS |[F,P]|

   @DF-RHF iter SAD:   -54.58562506171286   -5.45856e+01   0.00000e+00 
   @DF-RHF iter   1:   -55.42957380017283   -8.43949e-01   2.08005e-02 DIIS
   @DF-RHF iter   2:   -55.44933997575204   -1.97662e-02   3.93998e-03 DIIS
   @DF-RHF iter   3:   -55.44993006299701   -5.90087e-04   8.13904e-04 DIIS
   @DF-RHF iter   4:   -55.44996535332049   -3.52903e-05   7.59270e-06 DIIS
   @DF-RHF iter   5:   -55.44996535917008   -5.84959e-09   9.86692e-07 DIIS
  Energy and wave function converged.


  ==> Post-Iterations <==

    Orbital Energies [Eh]
    ---------------------

    Doubly Occupied:                                                      

       1A    -15.300501     2A     -1.100051     3A     -0.584614  
       4A     -0.584614     5A     -0.351735  

    Virtual:                                                              

       6A      0.663673     7A      0.759629     8A      0.759629  

    Final Occupation by Irrep:
              A 
    DOCC [     5 ]

  @DF-RHF Final Energy:   -55.44996535917008

   => Energetics <=

    Nuclear Repulsion Energy =             12.2232912008511363
    One-Electron Energy =                 -99.5034370119315099
    Two-Electron Energy =                  31.8301804519102944
    Total Energy =                        -55.4499653591700792

Computation Completed


Properties will be evaluated at   0.000000,   0.000000,   0.000000 [a0]

Properties computed using the SCF density matrix

  Nuclear Dipole Moment: [e a0]
     X:    32.8261      Y:   -10.3526      Z:    38.1236

  Electronic Dipole Moment: [e a0]
     X:   -32.4312      Y:     9.9577      Z:   -38.5185

  Dipole Moment: [e a0]
     X:     0.3949      Y:    -0.3949      Z:    -0.3949     Total:     0.6840

  Dipole Moment: [D]
     X:     1.0038      Y:    -1.0038      Z:    -1.0038     Total:     1.7386


*** tstop() called on Vanadium at Thu Sep 26 16:00:31 2019
Module time:
	user time   =       3.39 seconds =       0.06 minutes
	system time =       0.79 seconds =       0.01 minutes
	total time  =          1 seconds =       0.02 minutes
Total time:
	user time   =       3.39 seconds =       0.06 minutes
	system time =       0.79 seconds =       0.01 minutes
	total time  =          1 seconds =       0.02 minutes

       N-Body: Complex Energy (fragments = (3,), basis = (3,):   -55.44996535917008)

       N-Body: Computing complex (2/3) with fragments (2,) in the basis of fragments (2,).


*** tstart() called on Vanadium
*** at Thu Sep 26 16:00:32 2019

   => Loading Basis Set <=

    Name: STO-3G
    Role: ORBITAL
    Keyword: BASIS
    atoms 1   entry N          line    71 file /home/carlosborca/miniconda3/envs/CrystaLattE/share/psi4/basis/sto-3g.gbs 
    atoms 2-4 entry H          line    19 file /home/carlosborca/miniconda3/envs/CrystaLattE/share/psi4/basis/sto-3g.gbs 


         ---------------------------------------------------------
                                   SCF
               by Justin Turney, Rob Parrish, Andy Simmonett
                          and Daniel G. A. Smith
                              RHF Reference
                        4 Threads,    476 MiB Core
         ---------------------------------------------------------

  ==> Geometry <==

    Molecular point group: c1
    Full point group: C1

    Geometry (in Bohr), charge = 0, multiplicity = 1:

       Center              X                  Y                   Z               Mass       
    ------------   -----------------  -----------------  -----------------  -----------------
         N            3.928511960000     3.166464780000    -0.919107990000    14.003074004430
         H            2.394725200000     3.713277820000     0.000000000000     1.007825032230
         H            4.847619940000     4.700251540000    -1.465921030000     1.007825032230
         H            3.381698920000     2.247356790000    -2.452894750000     1.007825032230

  Running in c1 symmetry.

  Rotational constants: A =     10.50680  B =      0.13254  C =      0.13153 [cm^-1]
  Rotational constants: A = 314985.91418  B =   3973.38736  C =   3943.16163 [MHz]
  Nuclear repulsion =   12.223291200851136

  Charge       = 0
  Multiplicity = 1
  Electrons    = 10
  Nalpha       = 5
  Nbeta        = 5

  ==> Algorithm <==

  SCF Algorithm Type is DF.
  DIIS enabled.
  MOM disabled.
  Fractional occupation disabled.
  Guess Type is SAD.
  Energy threshold   = 1.00e-08
  Density threshold  = 1.00e-06
  Integral threshold = 0.00e+00

  ==> Primary Basis <==

  Basis Set: STO-3G
    Blend: STO-3G
    Number of shells: 6
    Number of basis function: 8
    Number of Cartesian functions: 8
    Spherical Harmonics?: true
    Max angular momentum: 1

   => Loading Basis Set <=

    Name: (STO-3G AUX)
    Role: JKFIT
    Keyword: DF_BASIS_SCF
    atoms 1   entry N          line   263 file /home/carlosborca/miniconda3/envs/CrystaLattE/share/psi4/basis/def2-svp-jkfit.gbs 
    atoms 2-4 entry H          line    23 file /home/carlosborca/miniconda3/envs/CrystaLattE/share/psi4/basis/def2-svp-jkfit.gbs 

  ==> Pre-Iterations <==

   -------------------------------------------------------
    Irrep   Nso     Nmo     Nalpha   Nbeta   Ndocc  Nsocc
   -------------------------------------------------------
     A          8       8       0       0       0       0
   -------------------------------------------------------
    Total       8       8       5       5       5       0
   -------------------------------------------------------

  ==> Integral Setup <==

  DFHelper Memory: AOs need 0.000 GiB; user supplied 0.349 GiB. Using in-core AOs.

  ==> MemDFJK: Density-Fitted J/K Matrices <==

    J tasked:                   Yes
    K tasked:                   Yes
    wK tasked:                   No
    OpenMP threads:               4
    Memory [MiB]:               357
    Algorithm:                 Core
    Schwarz Cutoff:           1E-12
    Mask sparsity (%):       0.0000
    Fitting Condition:        1E-10

   => Auxiliary Basis Set <=

  Basis Set: (STO-3G AUX)
    Blend: DEF2-SVP-JKFIT
    Number of shells: 43
    Number of basis function: 131
    Number of Cartesian functions: 153
    Spherical Harmonics?: true
    Max angular momentum: 4

  Minimum eigenvalue in the overlap matrix is 2.5446568031E-01.
  Using Symmetric Orthogonalization.

  SCF Guess: Superposition of Atomic Densities via on-the-fly atomic UHF.

  ==> Iterations <==

                           Total Energy        Delta E     RMS |[F,P]|

   @DF-RHF iter SAD:   -54.58562506171483   -5.45856e+01   0.00000e+00 
   @DF-RHF iter   1:   -55.42957380017457   -8.43949e-01   2.08005e-02 DIIS
   @DF-RHF iter   2:   -55.44933997575379   -1.97662e-02   3.93998e-03 DIIS
   @DF-RHF iter   3:   -55.44993006299885   -5.90087e-04   8.13904e-04 DIIS
   @DF-RHF iter   4:   -55.44996535332222   -3.52903e-05   7.59270e-06 DIIS
   @DF-RHF iter   5:   -55.44996535917183   -5.84961e-09   9.86692e-07 DIIS
  Energy and wave function converged.


  ==> Post-Iterations <==

    Orbital Energies [Eh]
    ---------------------

    Doubly Occupied:                                                      

       1A    -15.300501     2A     -1.100051     3A     -0.584614  
       4A     -0.584614     5A     -0.351735  

    Virtual:                                                              

       6A      0.663673     7A      0.759629     8A      0.759629  

    Final Occupation by Irrep:
              A 
    DOCC [     5 ]

  @DF-RHF Final Energy:   -55.44996535917183

   => Energetics <=

    Nuclear Repulsion Energy =             12.2232912008511363
    One-Electron Energy =                 -99.5034370119356595
    Two-Electron Energy =                  31.8301804519126961
    Total Energy =                        -55.4499653591718271

Computation Completed


Properties will be evaluated at   0.000000,   0.000000,   0.000000 [a0]

Properties computed using the SCF density matrix

  Nuclear Dipole Moment: [e a0]
     X:    38.1236      Y:    32.8261      Z:   -10.3526

  Electronic Dipole Moment: [e a0]
     X:   -38.5185      Y:   -32.4312      Z:     9.9577

  Dipole Moment: [e a0]
     X:    -0.3949      Y:     0.3949      Z:    -0.3949     Total:     0.6840

  Dipole Moment: [D]
     X:    -1.0038      Y:     1.0038      Z:    -1.0038     Total:     1.7386


*** tstop() called on Vanadium at Thu Sep 26 16:00:33 2019
Module time:
	user time   =       3.67 seconds =       0.06 minutes
	system time =       0.76 seconds =       0.01 minutes
	total time  =          1 seconds =       0.02 minutes
Total time:
	user time   =       7.15 seconds =       0.12 minutes
	system time =       1.57 seconds =       0.03 minutes
	total time  =          3 seconds =       0.05 minutes

       N-Body: Complex Energy (fragments = (2,), basis = (2,):   -55.44996535917183)

       N-Body: Computing complex (3/3) with fragments (1,) in the basis of fragments (1,).


*** tstart() called on Vanadium
*** at Thu Sep 26 16:00:33 2019

   => Loading Basis Set <=

    Name: STO-3G
    Role: ORBITAL
    Keyword: BASIS
    atoms 1   entry N          line    71 file /home/carlosborca/miniconda3/envs/CrystaLattE/share/psi4/basis/sto-3g.gbs 
    atoms 2-4 entry H          line    19 file /home/carlosborca/miniconda3/envs/CrystaLattE/share/psi4/basis/sto-3g.gbs 


         ---------------------------------------------------------
                                   SCF
               by Justin Turney, Rob Parrish, Andy Simmonett
                          and Daniel G. A. Smith
                              RHF Reference
                        4 Threads,    476 MiB Core
         ---------------------------------------------------------

  ==> Geometry <==

    Molecular point group: c1
    Full point group: C1

    Geometry (in Bohr), charge = 0, multiplicity = 1:

       Center              X                  Y                   Z               Mass       
    ------------   -----------------  -----------------  -----------------  -----------------
         N           -1.681155160000    -1.681155160000    -1.681155160000    14.003074004430
         H           -2.600263150000    -0.147368400000    -1.134342120000     1.007825032230
         H           -1.134342120000    -2.600263150000    -0.147368400000     1.007825032230
         H           -0.147368400000    -1.134342120000    -2.600263150000     1.007825032230

  Running in c1 symmetry.

  Rotational constants: A =      6.53545  B =      0.43458  C =      0.43458 [cm^-1]
  Rotational constants: A = 195927.87342  B =  13028.43972  C =  13028.43972 [MHz]
  Nuclear repulsion =   12.223291189591457

  Charge       = 0
  Multiplicity = 1
  Electrons    = 10
  Nalpha       = 5
  Nbeta        = 5

  ==> Algorithm <==

  SCF Algorithm Type is DF.
  DIIS enabled.
  MOM disabled.
  Fractional occupation disabled.
  Guess Type is SAD.
  Energy threshold   = 1.00e-08
  Density threshold  = 1.00e-06
  Integral threshold = 0.00e+00

  ==> Primary Basis <==

  Basis Set: STO-3G
    Blend: STO-3G
    Number of shells: 6
    Number of basis function: 8
    Number of Cartesian functions: 8
    Spherical Harmonics?: true
    Max angular momentum: 1

   => Loading Basis Set <=

    Name: (STO-3G AUX)
    Role: JKFIT
    Keyword: DF_BASIS_SCF
    atoms 1   entry N          line   263 file /home/carlosborca/miniconda3/envs/CrystaLattE/share/psi4/basis/def2-svp-jkfit.gbs 
    atoms 2-4 entry H          line    23 file /home/carlosborca/miniconda3/envs/CrystaLattE/share/psi4/basis/def2-svp-jkfit.gbs 

  ==> Pre-Iterations <==

   -------------------------------------------------------
    Irrep   Nso     Nmo     Nalpha   Nbeta   Ndocc  Nsocc
   -------------------------------------------------------
     A          8       8       0       0       0       0
   -------------------------------------------------------
    Total       8       8       5       5       5       0
   -------------------------------------------------------

  ==> Integral Setup <==

  DFHelper Memory: AOs need 0.000 GiB; user supplied 0.349 GiB. Using in-core AOs.

  ==> MemDFJK: Density-Fitted J/K Matrices <==

    J tasked:                   Yes
    K tasked:                   Yes
    wK tasked:                   No
    OpenMP threads:               4
    Memory [MiB]:               357
    Algorithm:                 Core
    Schwarz Cutoff:           1E-12
    Mask sparsity (%):       0.0000
    Fitting Condition:        1E-10

   => Auxiliary Basis Set <=

  Basis Set: (STO-3G AUX)
    Blend: DEF2-SVP-JKFIT
    Number of shells: 43
    Number of basis function: 131
    Number of Cartesian functions: 153
    Spherical Harmonics?: true
    Max angular momentum: 4

  Minimum eigenvalue in the overlap matrix is 2.5446568092E-01.
  Using Symmetric Orthogonalization.

  SCF Guess: Superposition of Atomic Densities via on-the-fly atomic UHF.

  ==> Iterations <==

                           Total Energy        Delta E     RMS |[F,P]|

   @DF-RHF iter SAD:   -54.58562505887942   -5.45856e+01   0.00000e+00 
   @DF-RHF iter   1:   -55.42957380035038   -8.43949e-01   2.08005e-02 DIIS
   @DF-RHF iter   2:   -55.44933997592634   -1.97662e-02   3.93998e-03 DIIS
   @DF-RHF iter   3:   -55.44993006317270   -5.90087e-04   8.13904e-04 DIIS
   @DF-RHF iter   4:   -55.44996535349630   -3.52903e-05   7.59270e-06 DIIS
   @DF-RHF iter   5:   -55.44996535934596   -5.84966e-09   9.86692e-07 DIIS
  Energy and wave function converged.


  ==> Post-Iterations <==

    Orbital Energies [Eh]
    ---------------------

    Doubly Occupied:                                                      

       1A    -15.300501     2A     -1.100051     3A     -0.584614  
       4A     -0.584614     5A     -0.351735  

    Virtual:                                                              

       6A      0.663673     7A      0.759629     8A      0.759629  

    Final Occupation by Irrep:
              A 
    DOCC [     5 ]

  @DF-RHF Final Energy:   -55.44996535934596

   => Energetics <=

    Nuclear Repulsion Energy =             12.2232911895914569
    One-Electron Energy =                 -99.5034369941982533
    Two-Electron Energy =                  31.8301804452608472
    Total Energy =                        -55.4499653593459527

Computation Completed


Properties will be evaluated at   0.000000,   0.000000,   0.000000 [a0]

Properties computed using the SCF density matrix

  Nuclear Dipole Moment: [e a0]
     X:   -15.6501      Y:   -15.6501      Z:   -15.6501

  Electronic Dipole Moment: [e a0]
     X:    16.0450      Y:    16.0450      Z:    16.0450

  Dipole Moment: [e a0]
     X:     0.3949      Y:     0.3949      Z:     0.3949     Total:     0.6840

  Dipole Moment: [D]
     X:     1.0038      Y:     1.0038      Z:     1.0038     Total:     1.7386


*** tstop() called on Vanadium at Thu Sep 26 16:00:34 2019
Module time:
	user time   =       4.66 seconds =       0.08 minutes
	system time =       0.92 seconds =       0.02 minutes
	total time  =          1 seconds =       0.02 minutes
Total time:
	user time   =      11.86 seconds =       0.20 minutes
	system time =       2.51 seconds =       0.04 minutes
	total time  =          4 seconds =       0.07 minutes

       N-Body: Complex Energy (fragments = (1,), basis = (1,):   -55.44996535934596)

   ==> N-Body: Now computing 2-body complexes <==


       N-Body: Computing complex (1/3) with fragments (1, 2) in the basis of fragments (1, 2).


*** tstart() called on Vanadium
*** at Thu Sep 26 16:00:34 2019

   => Loading Basis Set <=

    Name: STO-3G
    Role: ORBITAL
    Keyword: BASIS
    atoms 1, 5     entry N          line    71 file /home/carlosborca/miniconda3/envs/CrystaLattE/share/psi4/basis/sto-3g.gbs 
    atoms 2-4, 6-8 entry H          line    19 file /home/carlosborca/miniconda3/envs/CrystaLattE/share/psi4/basis/sto-3g.gbs 


         ---------------------------------------------------------
                                   SCF
               by Justin Turney, Rob Parrish, Andy Simmonett
                          and Daniel G. A. Smith
                              RHF Reference
                        4 Threads,    476 MiB Core
         ---------------------------------------------------------

  ==> Geometry <==

    Molecular point group: c1
    Full point group: C1

    Geometry (in Bohr), charge = 0, multiplicity = 1:

       Center              X                  Y                   Z               Mass       
    ------------   -----------------  -----------------  -----------------  -----------------
         N           -1.681155160000    -1.681155160000    -1.681155160000    14.003074004430
         H           -2.600263150000    -0.147368400000    -1.134342120000     1.007825032230
         H           -1.134342120000    -2.600263150000    -0.147368400000     1.007825032230
         H           -0.147368400000    -1.134342120000    -2.600263150000     1.007825032230
         N            3.928511960000     3.166464780000    -0.919107990000    14.003074004430
         H            2.394725200000     3.713277820000     0.000000000000     1.007825032230
         H            4.847619940000     4.700251540000    -1.465921030000     1.007825032230
         H            3.381698920000     2.247356790000    -2.452894750000     1.007825032230

  Running in c1 symmetry.

  Rotational constants: A =      0.81389  B =      0.11262  C =      0.10111 [cm^-1]
  Rotational constants: A =  24399.66655  B =   3376.30827  C =   3031.20899 [MHz]
  Nuclear repulsion =   38.181027420838156

  Charge       = 0
  Multiplicity = 1
  Electrons    = 20
  Nalpha       = 10
  Nbeta        = 10

  ==> Algorithm <==

  SCF Algorithm Type is DF.
  DIIS enabled.
  MOM disabled.
  Fractional occupation disabled.
  Guess Type is SAD.
  Energy threshold   = 1.00e-08
  Density threshold  = 1.00e-06
  Integral threshold = 0.00e+00

  ==> Primary Basis <==

  Basis Set: STO-3G
    Blend: STO-3G
    Number of shells: 12
    Number of basis function: 16
    Number of Cartesian functions: 16
    Spherical Harmonics?: true
    Max angular momentum: 1

   => Loading Basis Set <=

    Name: (STO-3G AUX)
    Role: JKFIT
    Keyword: DF_BASIS_SCF
    atoms 1, 5     entry N          line   263 file /home/carlosborca/miniconda3/envs/CrystaLattE/share/psi4/basis/def2-svp-jkfit.gbs 
    atoms 2-4, 6-8 entry H          line    23 file /home/carlosborca/miniconda3/envs/CrystaLattE/share/psi4/basis/def2-svp-jkfit.gbs 

  ==> Pre-Iterations <==

   -------------------------------------------------------
    Irrep   Nso     Nmo     Nalpha   Nbeta   Ndocc  Nsocc
   -------------------------------------------------------
     A         16      16       0       0       0       0
   -------------------------------------------------------
    Total      16      16      10      10      10       0
   -------------------------------------------------------

  ==> Integral Setup <==

  DFHelper Memory: AOs need 0.001 GiB; user supplied 0.349 GiB. Using in-core AOs.

  ==> MemDFJK: Density-Fitted J/K Matrices <==

    J tasked:                   Yes
    K tasked:                   Yes
    wK tasked:                   No
    OpenMP threads:               4
    Memory [MiB]:               357
    Algorithm:                 Core
    Schwarz Cutoff:           1E-12
    Mask sparsity (%):       0.7812
    Fitting Condition:        1E-10

   => Auxiliary Basis Set <=

  Basis Set: (STO-3G AUX)
    Blend: DEF2-SVP-JKFIT
    Number of shells: 86
    Number of basis function: 262
    Number of Cartesian functions: 306
    Spherical Harmonics?: true
    Max angular momentum: 4

  Minimum eigenvalue in the overlap matrix is 2.4902476447E-01.
  Using Symmetric Orthogonalization.

  SCF Guess: Superposition of Atomic Densities via on-the-fly atomic UHF.

  ==> Iterations <==

                           Total Energy        Delta E     RMS |[F,P]|

   @DF-RHF iter SAD:  -109.17187536361405   -1.09172e+02   0.00000e+00 
   @DF-RHF iter   1:  -110.85868685651437   -1.68681e+00   1.47404e-02 DIIS
   @DF-RHF iter   2:  -110.89833834745346   -3.96515e-02   2.79577e-03 DIIS
   @DF-RHF iter   3:  -110.89952567303528   -1.18733e-03   5.76810e-04 DIIS
   @DF-RHF iter   4:  -110.89959659941231   -7.09264e-05   6.16741e-06 DIIS
   @DF-RHF iter   5:  -110.89959661335399   -1.39417e-08   1.19982e-06 DIIS
   @DF-RHF iter   6:  -110.89959661386980   -5.15811e-10   1.49399e-07 DIIS
  Energy and wave function converged.


  ==> Post-Iterations <==

    Orbital Energies [Eh]
    ---------------------

    Doubly Occupied:                                                      

       1A    -15.309488     2A    -15.302774     3A     -1.109192  
       4A     -1.102065     5A     -0.596255     6A     -0.593544  
       7A     -0.586607     8A     -0.584627     9A     -0.360547  
      10A     -0.353674  

    Virtual:                                                              

      11A      0.631414    12A      0.679403    13A      0.733311  
      14A      0.750523    15A      0.758755    16A      0.784199  

    Final Occupation by Irrep:
              A 
    DOCC [    10 ]

  @DF-RHF Final Energy:  -110.89959661386980

   => Energetics <=

    Nuclear Repulsion Energy =             38.1810274208381557
    One-Electron Energy =                -226.3637036476459912
    Two-Electron Energy =                  77.2830796129380388
    Total Energy =                       -110.8995966138698037

Computation Completed


Properties will be evaluated at   0.000000,   0.000000,   0.000000 [a0]

Properties computed using the SCF density matrix

  Nuclear Dipole Moment: [e a0]
     X:    22.4736      Y:    17.1761      Z:   -26.0026

  Electronic Dipole Moment: [e a0]
     X:   -22.4669      Y:   -16.3865      Z:    26.0088

  Dipole Moment: [e a0]
     X:     0.0067      Y:     0.7896      Z:     0.0062     Total:     0.7897

  Dipole Moment: [D]
     X:     0.0170      Y:     2.0070      Z:     0.0158     Total:     2.0072


*** tstop() called on Vanadium at Thu Sep 26 16:00:37 2019
Module time:
	user time   =       4.61 seconds =       0.08 minutes
	system time =       0.89 seconds =       0.01 minutes
	total time  =          3 seconds =       0.05 minutes
Total time:
	user time   =      16.50 seconds =       0.28 minutes
	system time =       3.43 seconds =       0.06 minutes
	total time  =          7 seconds =       0.12 minutes

       N-Body: Complex Energy (fragments = (1, 2), basis = (1, 2):  -110.89959661386980)

       N-Body: Computing complex (2/3) with fragments (2, 3) in the basis of fragments (2, 3).


*** tstart() called on Vanadium
*** at Thu Sep 26 16:00:37 2019

   => Loading Basis Set <=

    Name: STO-3G
    Role: ORBITAL
    Keyword: BASIS
    atoms 1, 5     entry N          line    71 file /home/carlosborca/miniconda3/envs/CrystaLattE/share/psi4/basis/sto-3g.gbs 
    atoms 2-4, 6-8 entry H          line    19 file /home/carlosborca/miniconda3/envs/CrystaLattE/share/psi4/basis/sto-3g.gbs 


         ---------------------------------------------------------
                                   SCF
               by Justin Turney, Rob Parrish, Andy Simmonett
                          and Daniel G. A. Smith
                              RHF Reference
                        4 Threads,    476 MiB Core
         ---------------------------------------------------------

  ==> Geometry <==

    Molecular point group: c1
    Full point group: C1

    Geometry (in Bohr), charge = 0, multiplicity = 1:

       Center              X                  Y                   Z               Mass       
    ------------   -----------------  -----------------  -----------------  -----------------
         N            3.928511960000     3.166464780000    -0.919107990000    14.003074004430
         H            2.394725200000     3.713277820000     0.000000000000     1.007825032230
         H            4.847619940000     4.700251540000    -1.465921030000     1.007825032230
         H            3.381698920000     2.247356790000    -2.452894750000     1.007825032230
         N            3.166464780000    -0.919107990000     3.928511960000    14.003074004430
         H            2.247356790000    -2.452894750000     3.381698920000     1.007825032230
         H            3.713277820000     0.000000000000     2.394725200000     1.007825032230
         H            4.700251540000    -1.465921030000     4.847619940000     1.007825032230

  Running in c1 symmetry.

  Rotational constants: A =      0.16367  B =      0.10842  C =      0.06599 [cm^-1]
  Rotational constants: A =   4906.84480  B =   3250.32793  C =   1978.44545 [MHz]
  Nuclear repulsion =   39.871673339264788

  Charge       = 0
  Multiplicity = 1
  Electrons    = 20
  Nalpha       = 10
  Nbeta        = 10

  ==> Algorithm <==

  SCF Algorithm Type is DF.
  DIIS enabled.
  MOM disabled.
  Fractional occupation disabled.
  Guess Type is SAD.
  Energy threshold   = 1.00e-08
  Density threshold  = 1.00e-06
  Integral threshold = 0.00e+00

  ==> Primary Basis <==

  Basis Set: STO-3G
    Blend: STO-3G
    Number of shells: 12
    Number of basis function: 16
    Number of Cartesian functions: 16
    Spherical Harmonics?: true
    Max angular momentum: 1

   => Loading Basis Set <=

    Name: (STO-3G AUX)
    Role: JKFIT
    Keyword: DF_BASIS_SCF
    atoms 1, 5     entry N          line   263 file /home/carlosborca/miniconda3/envs/CrystaLattE/share/psi4/basis/def2-svp-jkfit.gbs 
    atoms 2-4, 6-8 entry H          line    23 file /home/carlosborca/miniconda3/envs/CrystaLattE/share/psi4/basis/def2-svp-jkfit.gbs 

  ==> Pre-Iterations <==

   -------------------------------------------------------
    Irrep   Nso     Nmo     Nalpha   Nbeta   Ndocc  Nsocc
   -------------------------------------------------------
     A         16      16       0       0       0       0
   -------------------------------------------------------
    Total      16      16      10      10      10       0
   -------------------------------------------------------

  ==> Integral Setup <==

  DFHelper Memory: AOs need 0.001 GiB; user supplied 0.349 GiB. Using in-core AOs.

  ==> MemDFJK: Density-Fitted J/K Matrices <==

    J tasked:                   Yes
    K tasked:                   Yes
    wK tasked:                   No
    OpenMP threads:               4
    Memory [MiB]:               357
    Algorithm:                 Core
    Schwarz Cutoff:           1E-12
    Mask sparsity (%):       0.7812
    Fitting Condition:        1E-10

   => Auxiliary Basis Set <=

  Basis Set: (STO-3G AUX)
    Blend: DEF2-SVP-JKFIT
    Number of shells: 86
    Number of basis function: 262
    Number of Cartesian functions: 306
    Spherical Harmonics?: true
    Max angular momentum: 4

  Minimum eigenvalue in the overlap matrix is 2.5147679852E-01.
  Using Symmetric Orthogonalization.

  SCF Guess: Superposition of Atomic Densities via on-the-fly atomic UHF.

  ==> Iterations <==

                           Total Energy        Delta E     RMS |[F,P]|

   @DF-RHF iter SAD:  -109.17478620710325   -1.09175e+02   0.00000e+00 
   @DF-RHF iter   1:  -110.86430507035652   -1.68952e+00   1.42847e-02 DIIS
   @DF-RHF iter   2:  -110.90202608323821   -3.77210e-02   2.68562e-03 DIIS
   @DF-RHF iter   3:  -110.90314768846943   -1.12161e-03   5.60194e-04 DIIS
   @DF-RHF iter   4:  -110.90321505433049   -6.73659e-05   9.43708e-06 DIIS
   @DF-RHF iter   5:  -110.90321507673698   -2.24065e-08   2.04330e-06 DIIS
   @DF-RHF iter   6:  -110.90321507802172   -1.28473e-09   4.96358e-07 DIIS
  Energy and wave function converged.


  ==> Post-Iterations <==

    Orbital Energies [Eh]
    ---------------------

    Doubly Occupied:                                                      

       1A    -15.307362     2A    -15.278926     3A     -1.106965  
       4A     -1.081661     5A     -0.594002     6A     -0.591404  
       7A     -0.568124     8A     -0.562387     9A     -0.360429  
      10A     -0.334239  

    Virtual:                                                              

      11A      0.649044    12A      0.693581    13A      0.750709  
      14A      0.754015    15A      0.776083    16A      0.795954  

    Final Occupation by Irrep:
              A 
    DOCC [    10 ]

  @DF-RHF Final Energy:  -110.90321507802172

   => Energetics <=

    Nuclear Repulsion Energy =             39.8716733392647882
    One-Electron Energy =                -229.9787849097643857
    Two-Electron Energy =                  79.2038964924778810
    Total Energy =                       -110.9032150780217165

Computation Completed


Properties will be evaluated at   0.000000,   0.000000,   0.000000 [a0]

Properties computed using the SCF density matrix

  Nuclear Dipole Moment: [e a0]
     X:    70.9498      Y:    22.4736      Z:    27.7711

  Electronic Dipole Moment: [e a0]
     X:   -70.9411      Y:   -22.4141      Z:   -28.6080

  Dipole Moment: [e a0]
     X:     0.0087      Y:     0.0594      Z:    -0.8369     Total:     0.8390

  Dipole Moment: [D]
     X:     0.0221      Y:     0.1511      Z:    -2.1272     Total:     2.1326


*** tstop() called on Vanadium at Thu Sep 26 16:00:38 2019
Module time:
	user time   =       3.99 seconds =       0.07 minutes
	system time =       1.03 seconds =       0.02 minutes
	total time  =          1 seconds =       0.02 minutes
Total time:
	user time   =      20.53 seconds =       0.34 minutes
	system time =       4.48 seconds =       0.07 minutes
	total time  =          8 seconds =       0.13 minutes

       N-Body: Complex Energy (fragments = (2, 3), basis = (2, 3):  -110.90321507802172)

       N-Body: Computing complex (3/3) with fragments (1, 3) in the basis of fragments (1, 3).


*** tstart() called on Vanadium
*** at Thu Sep 26 16:00:38 2019

   => Loading Basis Set <=

    Name: STO-3G
    Role: ORBITAL
    Keyword: BASIS
    atoms 1, 5     entry N          line    71 file /home/carlosborca/miniconda3/envs/CrystaLattE/share/psi4/basis/sto-3g.gbs 
    atoms 2-4, 6-8 entry H          line    19 file /home/carlosborca/miniconda3/envs/CrystaLattE/share/psi4/basis/sto-3g.gbs 


         ---------------------------------------------------------
                                   SCF
               by Justin Turney, Rob Parrish, Andy Simmonett
                          and Daniel G. A. Smith
                              RHF Reference
                        4 Threads,    476 MiB Core
         ---------------------------------------------------------

  ==> Geometry <==

    Molecular point group: c1
    Full point group: C1

    Geometry (in Bohr), charge = 0, multiplicity = 1:

       Center              X                  Y                   Z               Mass       
    ------------   -----------------  -----------------  -----------------  -----------------
         N           -1.681155160000    -1.681155160000    -1.681155160000    14.003074004430
         H           -2.600263150000    -0.147368400000    -1.134342120000     1.007825032230
         H           -1.134342120000    -2.600263150000    -0.147368400000     1.007825032230
         H           -0.147368400000    -1.134342120000    -2.600263150000     1.007825032230
         N            3.166464780000    -0.919107990000     3.928511960000    14.003074004430
         H            2.247356790000    -2.452894750000     3.381698920000     1.007825032230
         H            3.713277820000     0.000000000000     2.394725200000     1.007825032230
         H            4.700251540000    -1.465921030000     4.847619940000     1.007825032230

  Running in c1 symmetry.

  Rotational constants: A =      0.81389  B =      0.11262  C =      0.10111 [cm^-1]
  Rotational constants: A =  24399.66655  B =   3376.30827  C =   3031.20899 [MHz]
  Nuclear repulsion =   38.181027420838156

  Charge       = 0
  Multiplicity = 1
  Electrons    = 20
  Nalpha       = 10
  Nbeta        = 10

  ==> Algorithm <==

  SCF Algorithm Type is DF.
  DIIS enabled.
  MOM disabled.
  Fractional occupation disabled.
  Guess Type is SAD.
  Energy threshold   = 1.00e-08
  Density threshold  = 1.00e-06
  Integral threshold = 0.00e+00

  ==> Primary Basis <==

  Basis Set: STO-3G
    Blend: STO-3G
    Number of shells: 12
    Number of basis function: 16
    Number of Cartesian functions: 16
    Spherical Harmonics?: true
    Max angular momentum: 1

   => Loading Basis Set <=

    Name: (STO-3G AUX)
    Role: JKFIT
    Keyword: DF_BASIS_SCF
    atoms 1, 5     entry N          line   263 file /home/carlosborca/miniconda3/envs/CrystaLattE/share/psi4/basis/def2-svp-jkfit.gbs 
    atoms 2-4, 6-8 entry H          line    23 file /home/carlosborca/miniconda3/envs/CrystaLattE/share/psi4/basis/def2-svp-jkfit.gbs 

  ==> Pre-Iterations <==

   -------------------------------------------------------
    Irrep   Nso     Nmo     Nalpha   Nbeta   Ndocc  Nsocc
   -------------------------------------------------------
     A         16      16       0       0       0       0
   -------------------------------------------------------
    Total      16      16      10      10      10       0
   -------------------------------------------------------

  ==> Integral Setup <==

  DFHelper Memory: AOs need 0.001 GiB; user supplied 0.349 GiB. Using in-core AOs.

  ==> MemDFJK: Density-Fitted J/K Matrices <==

    J tasked:                   Yes
    K tasked:                   Yes
    wK tasked:                   No
    OpenMP threads:               4
    Memory [MiB]:               357
    Algorithm:                 Core
    Schwarz Cutoff:           1E-12
    Mask sparsity (%):       0.7812
    Fitting Condition:        1E-10

   => Auxiliary Basis Set <=

  Basis Set: (STO-3G AUX)
    Blend: DEF2-SVP-JKFIT
    Number of shells: 86
    Number of basis function: 262
    Number of Cartesian functions: 306
    Spherical Harmonics?: true
    Max angular momentum: 4

  Minimum eigenvalue in the overlap matrix is 2.4902476447E-01.
  Using Symmetric Orthogonalization.

  SCF Guess: Superposition of Atomic Densities via on-the-fly atomic UHF.

  ==> Iterations <==

                           Total Energy        Delta E     RMS |[F,P]|

   @DF-RHF iter SAD:  -109.17187536361543   -1.09172e+02   0.00000e+00 
   @DF-RHF iter   1:  -110.85868685651607   -1.68681e+00   1.47404e-02 DIIS
   @DF-RHF iter   2:  -110.89833834745522   -3.96515e-02   2.79577e-03 DIIS
   @DF-RHF iter   3:  -110.89952567303696   -1.18733e-03   5.76810e-04 DIIS
   @DF-RHF iter   4:  -110.89959659941401   -7.09264e-05   6.16741e-06 DIIS
   @DF-RHF iter   5:  -110.89959661335574   -1.39417e-08   1.19982e-06 DIIS
   @DF-RHF iter   6:  -110.89959661387142   -5.15683e-10   1.49399e-07 DIIS
  Energy and wave function converged.


  ==> Post-Iterations <==

    Orbital Energies [Eh]
    ---------------------

    Doubly Occupied:                                                      

       1A    -15.309488     2A    -15.302774     3A     -1.109192  
       4A     -1.102065     5A     -0.596255     6A     -0.593544  
       7A     -0.586607     8A     -0.584627     9A     -0.360547  
      10A     -0.353674  

    Virtual:                                                              

      11A      0.631414    12A      0.679403    13A      0.733311  
      14A      0.750523    15A      0.758755    16A      0.784199  

    Final Occupation by Irrep:
              A 
    DOCC [    10 ]

  @DF-RHF Final Energy:  -110.89959661387142

   => Energetics <=

    Nuclear Repulsion Energy =             38.1810274208381557
    One-Electron Energy =                -226.3637036476554840
    Two-Electron Energy =                  77.2830796129459117
    Total Energy =                       -110.8995966138714238

Computation Completed


Properties will be evaluated at   0.000000,   0.000000,   0.000000 [a0]

Properties computed using the SCF density matrix

  Nuclear Dipole Moment: [e a0]
     X:    17.1761      Y:   -26.0026      Z:    22.4736

  Electronic Dipole Moment: [e a0]
     X:   -16.3865      Y:    26.0088      Z:   -22.4669

  Dipole Moment: [e a0]
     X:     0.7896      Y:     0.0062      Z:     0.0067     Total:     0.7897

  Dipole Moment: [D]
     X:     2.0070      Y:     0.0158      Z:     0.0170     Total:     2.0072


*** tstop() called on Vanadium at Thu Sep 26 16:00:40 2019
Module time:
	user time   =       4.36 seconds =       0.07 minutes
	system time =       0.62 seconds =       0.01 minutes
	total time  =          2 seconds =       0.03 minutes
Total time:
	user time   =      24.97 seconds =       0.42 minutes
	system time =       5.15 seconds =       0.09 minutes
	total time  =         10 seconds =       0.17 minutes

       N-Body: Complex Energy (fragments = (1, 3), basis = (1, 3):  -110.89959661387142)

   ==> N-Body: Now computing 3-body complexes <==


       N-Body: Computing complex (1/1) with fragments (1, 2, 3) in the basis of fragments (1, 2, 3).


*** tstart() called on Vanadium
*** at Thu Sep 26 16:00:40 2019

   => Loading Basis Set <=

    Name: STO-3G
    Role: ORBITAL
    Keyword: BASIS
    atoms 1, 5, 9         entry N          line    71 file /home/carlosborca/miniconda3/envs/CrystaLattE/share/psi4/basis/sto-3g.gbs 
    atoms 2-4, 6-8, 10-12 entry H          line    19 file /home/carlosborca/miniconda3/envs/CrystaLattE/share/psi4/basis/sto-3g.gbs 


         ---------------------------------------------------------
                                   SCF
               by Justin Turney, Rob Parrish, Andy Simmonett
                          and Daniel G. A. Smith
                              RHF Reference
                        4 Threads,    476 MiB Core
         ---------------------------------------------------------

  ==> Geometry <==

    Molecular point group: c1
    Full point group: C1

    Geometry (in Bohr), charge = 0, multiplicity = 1:

       Center              X                  Y                   Z               Mass       
    ------------   -----------------  -----------------  -----------------  -----------------
         N           -1.681155160000    -1.681155160000    -1.681155160000    14.003074004430
         H           -2.600263150000    -0.147368400000    -1.134342120000     1.007825032230
         H           -1.134342120000    -2.600263150000    -0.147368400000     1.007825032230
         H           -0.147368400000    -1.134342120000    -2.600263150000     1.007825032230
         N            3.928511960000     3.166464780000    -0.919107990000    14.003074004430
         H            2.394725200000     3.713277820000     0.000000000000     1.007825032230
         H            4.847619940000     4.700251540000    -1.465921030000     1.007825032230
         H            3.381698920000     2.247356790000    -2.452894750000     1.007825032230
         N            3.166464780000    -0.919107990000     3.928511960000    14.003074004430
         H            2.247356790000    -2.452894750000     3.381698920000     1.007825032230
         H            3.713277820000     0.000000000000     2.394725200000     1.007825032230
         H            4.700251540000    -1.465921030000     4.847619940000     1.007825032230

  Running in c1 symmetry.

  Rotational constants: A =      0.15032  B =      0.08677  C =      0.05860 [cm^-1]
  Rotational constants: A =   4506.36640  B =   2601.36363  C =   1756.85865 [MHz]
  Nuclear repulsion =   79.563854589647377

  Charge       = 0
  Multiplicity = 1
  Electrons    = 30
  Nalpha       = 15
  Nbeta        = 15

  ==> Algorithm <==

  SCF Algorithm Type is DF.
  DIIS enabled.
  MOM disabled.
  Fractional occupation disabled.
  Guess Type is SAD.
  Energy threshold   = 1.00e-08
  Density threshold  = 1.00e-06
  Integral threshold = 0.00e+00

  ==> Primary Basis <==

  Basis Set: STO-3G
    Blend: STO-3G
    Number of shells: 18
    Number of basis function: 24
    Number of Cartesian functions: 24
    Spherical Harmonics?: true
    Max angular momentum: 1

   => Loading Basis Set <=

    Name: (STO-3G AUX)
    Role: JKFIT
    Keyword: DF_BASIS_SCF
    atoms 1, 5, 9         entry N          line   263 file /home/carlosborca/miniconda3/envs/CrystaLattE/share/psi4/basis/def2-svp-jkfit.gbs 
    atoms 2-4, 6-8, 10-12 entry H          line    23 file /home/carlosborca/miniconda3/envs/CrystaLattE/share/psi4/basis/def2-svp-jkfit.gbs 

  ==> Pre-Iterations <==

   -------------------------------------------------------
    Irrep   Nso     Nmo     Nalpha   Nbeta   Ndocc  Nsocc
   -------------------------------------------------------
     A         24      24       0       0       0       0
   -------------------------------------------------------
    Total      24      24      15      15      15       0
   -------------------------------------------------------

  ==> Integral Setup <==

  DFHelper Memory: AOs need 0.003 GiB; user supplied 0.349 GiB. Using in-core AOs.

  ==> MemDFJK: Density-Fitted J/K Matrices <==

    J tasked:                   Yes
    K tasked:                   Yes
    wK tasked:                   No
    OpenMP threads:               4
    Memory [MiB]:               357
    Algorithm:                 Core
    Schwarz Cutoff:           1E-12
    Mask sparsity (%):       1.0417
    Fitting Condition:        1E-10

   => Auxiliary Basis Set <=

  Basis Set: (STO-3G AUX)
    Blend: DEF2-SVP-JKFIT
    Number of shells: 129
    Number of basis function: 393
    Number of Cartesian functions: 459
    Spherical Harmonics?: true
    Max angular momentum: 4

  Minimum eigenvalue in the overlap matrix is 2.4778092073E-01.
  Using Symmetric Orthogonalization.

  SCF Guess: Superposition of Atomic Densities via on-the-fly atomic UHF.

  ==> Iterations <==

                           Total Energy        Delta E     RMS |[F,P]|

   @DF-RHF iter SAD:  -163.76166572888690   -1.63762e+02   0.00000e+00 
   @DF-RHF iter   1:  -166.29296352172781   -2.53130e+00   1.18135e-02 DIIS
   @DF-RHF iter   2:  -166.35066840236180   -5.77049e-02   2.23147e-03 DIIS
   @DF-RHF iter   3:  -166.35239486789942   -1.72647e-03   4.63664e-04 DIIS
   @DF-RHF iter   4:  -166.35249851478127   -1.03647e-04   7.25503e-06 DIIS
   @DF-RHF iter   5:  -166.35249854577091   -3.09896e-08   1.86236e-06 DIIS
   @DF-RHF iter   6:  -166.35249854837102   -2.60010e-09   4.31670e-07 DIIS
  Energy and wave function converged.


  ==> Post-Iterations <==

    Orbital Energies [Eh]
    ---------------------

    Doubly Occupied:                                                      

       1A    -15.316237     2A    -15.305068     3A    -15.287948  
       4A     -1.115956     5A     -1.104387     6A     -1.090622  
       7A     -0.603324     8A     -0.601739     9A     -0.590270  
      10A     -0.587862    11A     -0.575659    12A     -0.571315  
      13A     -0.369083    14A     -0.355797    15A     -0.342971  

    Virtual:                                                              

      16A      0.616437    17A      0.665920    18A      0.684654  
      19A      0.731460    20A      0.744099    21A      0.748612  
      22A      0.776743    23A      0.781813    24A      0.796029  

    Final Occupation by Irrep:
              A 
    DOCC [    15 ]

  @DF-RHF Final Energy:  -166.35249854837102

   => Energetics <=

    Nuclear Repulsion Energy =             79.5638545896473772
    One-Electron Energy =                -384.1962374561412616
    Two-Electron Energy =                 138.2798843181228960
    Total Energy =                       -166.3524985483710168

Computation Completed


Properties will be evaluated at   0.000000,   0.000000,   0.000000 [a0]

Properties computed using the SCF density matrix

  Nuclear Dipole Moment: [e a0]
     X:    55.2997      Y:     6.8235      Z:    12.1210

  Electronic Dipole Moment: [e a0]
     X:   -54.8894      Y:    -6.3638      Z:   -12.5493

  Dipole Moment: [e a0]
     X:     0.4103      Y:     0.4597      Z:    -0.4283     Total:     0.7504

  Dipole Moment: [D]
     X:     1.0428      Y:     1.1684      Z:    -1.0886     Total:     1.9073


*** tstop() called on Vanadium at Thu Sep 26 16:00:42 2019
Module time:
	user time   =       4.94 seconds =       0.08 minutes
	system time =       0.83 seconds =       0.01 minutes
	total time  =          2 seconds =       0.03 minutes
Total time:
	user time   =      29.95 seconds =       0.50 minutes
	system time =       6.00 seconds =       0.10 minutes
	total time  =         12 seconds =       0.20 minutes

       N-Body: Complex Energy (fragments = (1, 2, 3), basis = (1, 2, 3):  -166.35249854837102)

   ==> N-Body: Non-Counterpoise Corrected (NoCP) energies <==

   n-Body     Total Energy [Eh]       I.E. [kcal/mol]      Delta [kcal/mol]
        1     -166.349896077688        0.000000000000        0.000000000000
        2     -166.352512228075       -1.641659152802       -1.641659152802
        3     -166.352498548371       -1.633075008901        0.008584143901

   => Loading Basis Set <=

    Name: DEF2-SVP
    Role: ORBITAL
    Keyword: BASIS
    atoms 1, 5, 9         entry N          line   110 file /home/carlosborca/miniconda3/envs/CrystaLattE/share/psi4/basis/def2-svp.gbs 
    atoms 2-4, 6-8, 10-12 entry H          line    15 file /home/carlosborca/miniconda3/envs/CrystaLattE/share/psi4/basis/def2-svp.gbs 


    Psi4 stopped on: Thursday, 26 September 2019 04:00PM
    Psi4 wall time for execution: 0:00:12.52

*** Psi4 exiting successfully. Buy a developer a beer!
