
    -----------------------------------------------------------------------
          Psi4: An Open-Source Ab Initio Electronic Structure Package
                               Psi4 1.4a2.dev37 

                         Git: Rev {master} a6305a1 


    R. M. Parrish, L. A. Burns, D. G. A. Smith, A. C. Simmonett,
    A. E. DePrince III, E. G. Hohenstein, U. Bozkaya, A. Yu. Sokolov,
    R. Di Remigio, R. M. Richard, J. F. Gonthier, A. M. James,
    H. R. McAlexander, A. Kumar, M. Saitow, X. Wang, B. P. Pritchard,
    P. Verma, H. F. Schaefer III, K. Patkowski, R. A. King, E. F. Valeev,
    F. A. Evangelista, J. M. Turney, T. D. Crawford, and C. D. Sherrill,
    J. Chem. Theory Comput. 13(7) pp 3185--3197 (2017).
    (doi: 10.1021/acs.jctc.7b00174)


                         Additional Contributions by
    P. Kraus, H. Kruse, M. H. Lechner, M. C. Schieber, R. A. Shaw,
    A. Alenaizan, R. Galvelis, Z. L. Glick, S. Lehtola, and J. P. Misiewicz

    -----------------------------------------------------------------------


    Psi4 started on: Thursday, 26 September 2019 03:06PM

    Process ID: 1216
    Host:       Vanadium
    PSIDATADIR: /home/carlosborca/miniconda3/envs/CrystaLattE/share/psi4
    Memory:     500.0 MiB
    Threads:    4
    
  ==> Input File <==

--------------------------------------------------------------------------
# PSI4 file produced by CrystaLattE

# Psithon input for N-mer:      3mer-0+1+2
# Number of replicas:           3
# Priority index for input:     7.57085462e-07
# Minimum monomer separations:  2.428  2.588  2.588 
# COM priority index for input: 2.37821892e-08
# Minimum COM separations:      3.418  3.883  3.883 

memory 500 MB

molecule Trimer_0_1_2 {
  N           -1.68115516      -1.68115516      -1.68115516 
  H           -2.60026315      -0.14736840      -1.13434212 
  H           -1.13434212      -2.60026315      -0.14736840 
  H           -0.14736840      -1.13434212      -2.60026315 
--
  N            3.92851196       3.16646478      -0.91910799 
  H            2.39472520       3.71327782       0.00000000 
  H            4.84761994       4.70025154      -1.46592103 
  H            3.38169892       2.24735679      -2.45289475 
--
  N            3.16646478      -0.91910799       3.92851196 
  H            2.24735679      -2.45289475       3.38169892 
  H            3.71327782       0.00000000       2.39472520 
  H            4.70025154      -1.46592103       4.84761994 
units = au
no_com
no_reorient
}

set {
  e_convergence 8
  scf_type df
  mp2_type df
  cc_type df
  freeze_core true
}

energy('scf/STO-3G', bsse_type = 'cp')

--------------------------------------------------------------------------

  Memory set to 476.837 MiB by Python driver.


   ===> N-Body Interaction Abacus <===
        BSSE Treatment:                     cp
        Number of 1-body computations:     6
        Number of 2-body computations:     3
        Number of 3-body computations:     1

   ==> N-Body: Now computing 1-body complexes <==


       N-Body: Computing complex (1/6) with fragments (3,) in the basis of fragments (1, 2, 3).


*** tstart() called on Vanadium
*** at Thu Sep 26 15:06:42 2019

   => Loading Basis Set <=

    Name: STO-3G
    Role: ORBITAL
    Keyword: BASIS
    atoms 1, 5, 9         entry N          line    71 file /home/carlosborca/miniconda3/envs/CrystaLattE/share/psi4/basis/sto-3g.gbs 
    atoms 2-4, 6-8, 10-12 entry H          line    19 file /home/carlosborca/miniconda3/envs/CrystaLattE/share/psi4/basis/sto-3g.gbs 


         ---------------------------------------------------------
                                   SCF
               by Justin Turney, Rob Parrish, Andy Simmonett
                          and Daniel G. A. Smith
                              RHF Reference
                        4 Threads,    476 MiB Core
         ---------------------------------------------------------

  ==> Geometry <==

    Molecular point group: c1
    Full point group: C1

    Geometry (in Bohr), charge = 0, multiplicity = 1:

       Center              X                  Y                   Z               Mass       
    ------------   -----------------  -----------------  -----------------  -----------------
      Gh(N)          -1.681155160000    -1.681155160000    -1.681155160000    14.003074004430
      Gh(H)          -2.600263150000    -0.147368400000    -1.134342120000     1.007825032230
      Gh(H)          -1.134342120000    -2.600263150000    -0.147368400000     1.007825032230
      Gh(H)          -0.147368400000    -1.134342120000    -2.600263150000     1.007825032230
      Gh(N)           3.928511960000     3.166464780000    -0.919107990000    14.003074004430
      Gh(H)           2.394725200000     3.713277820000     0.000000000000     1.007825032230
      Gh(H)           4.847619940000     4.700251540000    -1.465921030000     1.007825032230
      Gh(H)           3.381698920000     2.247356790000    -2.452894750000     1.007825032230
         N            3.166464780000    -0.919107990000     3.928511960000    14.003074004430
         H            2.247356790000    -2.452894750000     3.381698920000     1.007825032230
         H            3.713277820000     0.000000000000     2.394725200000     1.007825032230
         H            4.700251540000    -1.465921030000     4.847619940000     1.007825032230

  Running in c1 symmetry.

  Rotational constants: A =      0.15032  B =      0.08677  C =      0.05860 [cm^-1]
  Rotational constants: A =   4506.36640  B =   2601.36363  C =   1756.85865 [MHz]
  Nuclear repulsion =   12.223291200851136

  Charge       = 0
  Multiplicity = 1
  Electrons    = 10
  Nalpha       = 5
  Nbeta        = 5

  ==> Algorithm <==

  SCF Algorithm Type is DF.
  DIIS enabled.
  MOM disabled.
  Fractional occupation disabled.
  Guess Type is SAD.
  Energy threshold   = 1.00e-08
  Density threshold  = 1.00e-06
  Integral threshold = 0.00e+00

  ==> Primary Basis <==

  Basis Set: STO-3G
    Blend: STO-3G
    Number of shells: 18
    Number of basis function: 24
    Number of Cartesian functions: 24
    Spherical Harmonics?: true
    Max angular momentum: 1

   => Loading Basis Set <=

    Name: (STO-3G AUX)
    Role: JKFIT
    Keyword: DF_BASIS_SCF
    atoms 1, 5, 9         entry N          line   263 file /home/carlosborca/miniconda3/envs/CrystaLattE/share/psi4/basis/def2-svp-jkfit.gbs 
    atoms 2-4, 6-8, 10-12 entry H          line    23 file /home/carlosborca/miniconda3/envs/CrystaLattE/share/psi4/basis/def2-svp-jkfit.gbs 

  ==> Pre-Iterations <==

   -------------------------------------------------------
    Irrep   Nso     Nmo     Nalpha   Nbeta   Ndocc  Nsocc
   -------------------------------------------------------
     A         24      24       0       0       0       0
   -------------------------------------------------------
    Total      24      24       5       5       5       0
   -------------------------------------------------------

  ==> Integral Setup <==

  DFHelper Memory: AOs need 0.003 GiB; user supplied 0.349 GiB. Using in-core AOs.

  ==> MemDFJK: Density-Fitted J/K Matrices <==

    J tasked:                   Yes
    K tasked:                   Yes
    wK tasked:                   No
    OpenMP threads:               4
    Memory [MiB]:               357
    Algorithm:                 Core
    Schwarz Cutoff:           1E-12
    Mask sparsity (%):       1.0417
    Fitting Condition:        1E-10

   => Auxiliary Basis Set <=

  Basis Set: (STO-3G AUX)
    Blend: DEF2-SVP-JKFIT
    Number of shells: 129
    Number of basis function: 393
    Number of Cartesian functions: 459
    Spherical Harmonics?: true
    Max angular momentum: 4

  Minimum eigenvalue in the overlap matrix is 2.4778092073E-01.
  Using Symmetric Orthogonalization.

  SCF Guess: Superposition of Atomic Densities via on-the-fly atomic UHF.

  ==> Iterations <==

                           Total Energy        Delta E     RMS |[F,P]|

   @DF-RHF iter SAD:   -54.58562157091833   -5.45856e+01   0.00000e+00 
   @DF-RHF iter   1:   -55.42967670066721   -8.44055e-01   6.93551e-03 DIIS
   @DF-RHF iter   2:   -55.44942845576040   -1.97518e-02   1.31525e-03 DIIS
   @DF-RHF iter   3:   -55.45001961463734   -5.91159e-04   2.71419e-04 DIIS
   @DF-RHF iter   4:   -55.45005495622715   -3.53416e-05   2.96861e-06 DIIS
   @DF-RHF iter   5:   -55.45005496315860   -6.93145e-09   7.77834e-07 DIIS
  Energy and wave function converged.


  ==> Post-Iterations <==

    Orbital Energies [Eh]
    ---------------------

    Doubly Occupied:                                                      

       1A    -15.300798     2A     -1.100262     3A     -0.584799  
       4A     -0.584768     5A     -0.351932  

    Virtual:                                                              

       6A      0.417931     7A      0.435604     8A      0.664271  
       9A      0.756925    10A      0.759669    11A      0.915713  
      12A      0.947660    13A      0.957007    14A      0.972569  
      15A      1.314013    16A      1.361200    17A      2.199093  
      18A      2.224749    19A      2.672406    20A      2.696937  
      21A      2.702943    22A      2.730580    23A     23.902471  
      24A     23.920176  

    Final Occupation by Irrep:
              A 
    DOCC [     5 ]

  @DF-RHF Final Energy:   -55.45005496315860

   => Energetics <=

    Nuclear Repulsion Energy =             12.2232912008511363
    One-Electron Energy =                 -99.5015897316236959
    Two-Electron Energy =                  31.8282435676139563
    Total Energy =                        -55.4500549631586068

Computation Completed


Properties will be evaluated at   0.000000,   0.000000,   0.000000 [a0]

Properties computed using the SCF density matrix

  Nuclear Dipole Moment: [e a0]
     X:    32.8261      Y:   -10.3526      Z:    38.1236

  Electronic Dipole Moment: [e a0]
     X:   -32.4304      Y:     9.9564      Z:   -38.5164

  Dipole Moment: [e a0]
     X:     0.3958      Y:    -0.3962      Z:    -0.3928     Total:     0.6840

  Dipole Moment: [D]
     X:     1.0060      Y:    -1.0069      Z:    -0.9983     Total:     1.7386


*** tstop() called on Vanadium at Thu Sep 26 15:06:44 2019
Module time:
	user time   =       4.26 seconds =       0.07 minutes
	system time =       1.00 seconds =       0.02 minutes
	total time  =          2 seconds =       0.03 minutes
Total time:
	user time   =       4.26 seconds =       0.07 minutes
	system time =       1.00 seconds =       0.02 minutes
	total time  =          2 seconds =       0.03 minutes

       N-Body: Complex Energy (fragments = (3,), basis = (1, 2, 3):   -55.45005496315860)

       N-Body: Computing complex (2/6) with fragments (2,) in the basis of fragments (1, 2, 3).


*** tstart() called on Vanadium
*** at Thu Sep 26 15:06:44 2019

   => Loading Basis Set <=

    Name: STO-3G
    Role: ORBITAL
    Keyword: BASIS
    atoms 1, 5, 9         entry N          line    71 file /home/carlosborca/miniconda3/envs/CrystaLattE/share/psi4/basis/sto-3g.gbs 
    atoms 2-4, 6-8, 10-12 entry H          line    19 file /home/carlosborca/miniconda3/envs/CrystaLattE/share/psi4/basis/sto-3g.gbs 


         ---------------------------------------------------------
                                   SCF
               by Justin Turney, Rob Parrish, Andy Simmonett
                          and Daniel G. A. Smith
                              RHF Reference
                        4 Threads,    476 MiB Core
         ---------------------------------------------------------

  ==> Geometry <==

    Molecular point group: c1
    Full point group: C1

    Geometry (in Bohr), charge = 0, multiplicity = 1:

       Center              X                  Y                   Z               Mass       
    ------------   -----------------  -----------------  -----------------  -----------------
      Gh(N)          -1.681155160000    -1.681155160000    -1.681155160000    14.003074004430
      Gh(H)          -2.600263150000    -0.147368400000    -1.134342120000     1.007825032230
      Gh(H)          -1.134342120000    -2.600263150000    -0.147368400000     1.007825032230
      Gh(H)          -0.147368400000    -1.134342120000    -2.600263150000     1.007825032230
         N            3.928511960000     3.166464780000    -0.919107990000    14.003074004430
         H            2.394725200000     3.713277820000     0.000000000000     1.007825032230
         H            4.847619940000     4.700251540000    -1.465921030000     1.007825032230
         H            3.381698920000     2.247356790000    -2.452894750000     1.007825032230
      Gh(N)           3.166464780000    -0.919107990000     3.928511960000    14.003074004430
      Gh(H)           2.247356790000    -2.452894750000     3.381698920000     1.007825032230
      Gh(H)           3.713277820000     0.000000000000     2.394725200000     1.007825032230
      Gh(H)           4.700251540000    -1.465921030000     4.847619940000     1.007825032230

  Running in c1 symmetry.

  Rotational constants: A =      0.15032  B =      0.08677  C =      0.05860 [cm^-1]
  Rotational constants: A =   4506.36640  B =   2601.36363  C =   1756.85865 [MHz]
  Nuclear repulsion =   12.223291200851136

  Charge       = 0
  Multiplicity = 1
  Electrons    = 10
  Nalpha       = 5
  Nbeta        = 5

  ==> Algorithm <==

  SCF Algorithm Type is DF.
  DIIS enabled.
  MOM disabled.
  Fractional occupation disabled.
  Guess Type is SAD.
  Energy threshold   = 1.00e-08
  Density threshold  = 1.00e-06
  Integral threshold = 0.00e+00

  ==> Primary Basis <==

  Basis Set: STO-3G
    Blend: STO-3G
    Number of shells: 18
    Number of basis function: 24
    Number of Cartesian functions: 24
    Spherical Harmonics?: true
    Max angular momentum: 1

   => Loading Basis Set <=

    Name: (STO-3G AUX)
    Role: JKFIT
    Keyword: DF_BASIS_SCF
    atoms 1, 5, 9         entry N          line   263 file /home/carlosborca/miniconda3/envs/CrystaLattE/share/psi4/basis/def2-svp-jkfit.gbs 
    atoms 2-4, 6-8, 10-12 entry H          line    23 file /home/carlosborca/miniconda3/envs/CrystaLattE/share/psi4/basis/def2-svp-jkfit.gbs 

  ==> Pre-Iterations <==

   -------------------------------------------------------
    Irrep   Nso     Nmo     Nalpha   Nbeta   Ndocc  Nsocc
   -------------------------------------------------------
     A         24      24       0       0       0       0
   -------------------------------------------------------
    Total      24      24       5       5       5       0
   -------------------------------------------------------

  ==> Integral Setup <==

  DFHelper Memory: AOs need 0.003 GiB; user supplied 0.349 GiB. Using in-core AOs.

  ==> MemDFJK: Density-Fitted J/K Matrices <==

    J tasked:                   Yes
    K tasked:                   Yes
    wK tasked:                   No
    OpenMP threads:               4
    Memory [MiB]:               357
    Algorithm:                 Core
    Schwarz Cutoff:           1E-12
    Mask sparsity (%):       1.0417
    Fitting Condition:        1E-10

   => Auxiliary Basis Set <=

  Basis Set: (STO-3G AUX)
    Blend: DEF2-SVP-JKFIT
    Number of shells: 129
    Number of basis function: 393
    Number of Cartesian functions: 459
    Spherical Harmonics?: true
    Max angular momentum: 4

  Minimum eigenvalue in the overlap matrix is 2.4778092073E-01.
  Using Symmetric Orthogonalization.

  SCF Guess: Superposition of Atomic Densities via on-the-fly atomic UHF.

  ==> Iterations <==

                           Total Energy        Delta E     RMS |[F,P]|

   @DF-RHF iter SAD:   -54.58562608779479   -5.45856e+01   0.00000e+00 
   @DF-RHF iter   1:   -55.43132764701593   -8.45702e-01   6.88014e-03 DIIS
   @DF-RHF iter   2:   -55.45076847613892   -1.94408e-02   1.33223e-03 DIIS
   @DF-RHF iter   3:   -55.45137529953220   -6.06823e-04   2.74091e-04 DIIS
   @DF-RHF iter   4:   -55.45141160488747   -3.63054e-05   3.28598e-06 DIIS
   @DF-RHF iter   5:   -55.45141161163830   -6.75083e-09   7.92306e-07 DIIS
  Energy and wave function converged.


  ==> Post-Iterations <==

    Orbital Energies [Eh]
    ---------------------

    Doubly Occupied:                                                      

       1A    -15.303001     2A     -1.101312     3A     -0.585852  
       4A     -0.585764     5A     -0.353161  

    Virtual:                                                              

       6A      0.427125     7A      0.451428     8A      0.660625  
       9A      0.755513    10A      0.758204    11A      0.924729  
      12A      0.948134    13A      0.975700    14A      0.985600  
      15A      1.325337    16A      1.372269    17A      2.201363  
      18A      2.232807    19A      2.683767    20A      2.701180  
      21A      2.721507    22A      2.744036    23A     23.909939  
      24A     23.933956  

    Final Occupation by Irrep:
              A 
    DOCC [     5 ]

  @DF-RHF Final Energy:   -55.45141161163830

   => Energetics <=

    Nuclear Repulsion Energy =             12.2232912008511363
    One-Electron Energy =                 -99.4912324409269218
    Two-Electron Energy =                  31.8165296284374861
    Total Energy =                        -55.4514116116382993

Computation Completed


Properties will be evaluated at   0.000000,   0.000000,   0.000000 [a0]

Properties computed using the SCF density matrix

  Nuclear Dipole Moment: [e a0]
     X:    38.1236      Y:    32.8261      Z:   -10.3526

  Electronic Dipole Moment: [e a0]
     X:   -38.5178      Y:   -32.4190      Z:     9.9466

  Dipole Moment: [e a0]
     X:    -0.3942      Y:     0.4071      Z:    -0.4060     Total:     0.6971

  Dipole Moment: [D]
     X:    -1.0019      Y:     1.0348      Z:    -1.0319     Total:     1.7719


*** tstop() called on Vanadium at Thu Sep 26 15:06:46 2019
Module time:
	user time   =       4.45 seconds =       0.07 minutes
	system time =       0.95 seconds =       0.02 minutes
	total time  =          2 seconds =       0.03 minutes
Total time:
	user time   =       8.78 seconds =       0.15 minutes
	system time =       1.95 seconds =       0.03 minutes
	total time  =          4 seconds =       0.07 minutes

       N-Body: Complex Energy (fragments = (2,), basis = (1, 2, 3):   -55.45141161163830)

       N-Body: Computing complex (3/6) with fragments (1,) in the basis of fragments (1,).


*** tstart() called on Vanadium
*** at Thu Sep 26 15:06:46 2019

   => Loading Basis Set <=

    Name: STO-3G
    Role: ORBITAL
    Keyword: BASIS
    atoms 1   entry N          line    71 file /home/carlosborca/miniconda3/envs/CrystaLattE/share/psi4/basis/sto-3g.gbs 
    atoms 2-4 entry H          line    19 file /home/carlosborca/miniconda3/envs/CrystaLattE/share/psi4/basis/sto-3g.gbs 


         ---------------------------------------------------------
                                   SCF
               by Justin Turney, Rob Parrish, Andy Simmonett
                          and Daniel G. A. Smith
                              RHF Reference
                        4 Threads,    476 MiB Core
         ---------------------------------------------------------

  ==> Geometry <==

    Molecular point group: c1
    Full point group: C1

    Geometry (in Bohr), charge = 0, multiplicity = 1:

       Center              X                  Y                   Z               Mass       
    ------------   -----------------  -----------------  -----------------  -----------------
         N           -1.681155160000    -1.681155160000    -1.681155160000    14.003074004430
         H           -2.600263150000    -0.147368400000    -1.134342120000     1.007825032230
         H           -1.134342120000    -2.600263150000    -0.147368400000     1.007825032230
         H           -0.147368400000    -1.134342120000    -2.600263150000     1.007825032230

  Running in c1 symmetry.

  Rotational constants: A =      6.53545  B =      0.43458  C =      0.43458 [cm^-1]
  Rotational constants: A = 195927.87342  B =  13028.43972  C =  13028.43972 [MHz]
  Nuclear repulsion =   12.223291189591457

  Charge       = 0
  Multiplicity = 1
  Electrons    = 10
  Nalpha       = 5
  Nbeta        = 5

  ==> Algorithm <==

  SCF Algorithm Type is DF.
  DIIS enabled.
  MOM disabled.
  Fractional occupation disabled.
  Guess Type is SAD.
  Energy threshold   = 1.00e-08
  Density threshold  = 1.00e-06
  Integral threshold = 0.00e+00

  ==> Primary Basis <==

  Basis Set: STO-3G
    Blend: STO-3G
    Number of shells: 6
    Number of basis function: 8
    Number of Cartesian functions: 8
    Spherical Harmonics?: true
    Max angular momentum: 1

   => Loading Basis Set <=

    Name: (STO-3G AUX)
    Role: JKFIT
    Keyword: DF_BASIS_SCF
    atoms 1   entry N          line   263 file /home/carlosborca/miniconda3/envs/CrystaLattE/share/psi4/basis/def2-svp-jkfit.gbs 
    atoms 2-4 entry H          line    23 file /home/carlosborca/miniconda3/envs/CrystaLattE/share/psi4/basis/def2-svp-jkfit.gbs 

  ==> Pre-Iterations <==

   -------------------------------------------------------
    Irrep   Nso     Nmo     Nalpha   Nbeta   Ndocc  Nsocc
   -------------------------------------------------------
     A          8       8       0       0       0       0
   -------------------------------------------------------
    Total       8       8       5       5       5       0
   -------------------------------------------------------

  ==> Integral Setup <==

  DFHelper Memory: AOs need 0.000 GiB; user supplied 0.349 GiB. Using in-core AOs.

  ==> MemDFJK: Density-Fitted J/K Matrices <==

    J tasked:                   Yes
    K tasked:                   Yes
    wK tasked:                   No
    OpenMP threads:               4
    Memory [MiB]:               357
    Algorithm:                 Core
    Schwarz Cutoff:           1E-12
    Mask sparsity (%):       0.0000
    Fitting Condition:        1E-10

   => Auxiliary Basis Set <=

  Basis Set: (STO-3G AUX)
    Blend: DEF2-SVP-JKFIT
    Number of shells: 43
    Number of basis function: 131
    Number of Cartesian functions: 153
    Spherical Harmonics?: true
    Max angular momentum: 4

  Minimum eigenvalue in the overlap matrix is 2.5446568092E-01.
  Using Symmetric Orthogonalization.

  SCF Guess: Superposition of Atomic Densities via on-the-fly atomic UHF.

  ==> Iterations <==

                           Total Energy        Delta E     RMS |[F,P]|

   @DF-RHF iter SAD:   -54.58562505887945   -5.45856e+01   0.00000e+00 
   @DF-RHF iter   1:   -55.42957380035038   -8.43949e-01   2.08005e-02 DIIS
   @DF-RHF iter   2:   -55.44933997592629   -1.97662e-02   3.93998e-03 DIIS
   @DF-RHF iter   3:   -55.44993006317268   -5.90087e-04   8.13904e-04 DIIS
   @DF-RHF iter   4:   -55.44996535349627   -3.52903e-05   7.59270e-06 DIIS
   @DF-RHF iter   5:   -55.44996535934588   -5.84961e-09   9.86692e-07 DIIS
  Energy and wave function converged.


  ==> Post-Iterations <==

    Orbital Energies [Eh]
    ---------------------

    Doubly Occupied:                                                      

       1A    -15.300501     2A     -1.100051     3A     -0.584614  
       4A     -0.584614     5A     -0.351735  

    Virtual:                                                              

       6A      0.663673     7A      0.759629     8A      0.759629  

    Final Occupation by Irrep:
              A 
    DOCC [     5 ]

  @DF-RHF Final Energy:   -55.44996535934588

   => Energetics <=

    Nuclear Repulsion Energy =             12.2232911895914569
    One-Electron Energy =                 -99.5034369941981254
    Two-Electron Energy =                  31.8301804452607833
    Total Energy =                        -55.4499653593458817

Computation Completed


Properties will be evaluated at   0.000000,   0.000000,   0.000000 [a0]

Properties computed using the SCF density matrix

  Nuclear Dipole Moment: [e a0]
     X:   -15.6501      Y:   -15.6501      Z:   -15.6501

  Electronic Dipole Moment: [e a0]
     X:    16.0450      Y:    16.0450      Z:    16.0450

  Dipole Moment: [e a0]
     X:     0.3949      Y:     0.3949      Z:     0.3949     Total:     0.6840

  Dipole Moment: [D]
     X:     1.0038      Y:     1.0038      Z:     1.0038     Total:     1.7386


*** tstop() called on Vanadium at Thu Sep 26 15:06:47 2019
Module time:
	user time   =       4.46 seconds =       0.07 minutes
	system time =       1.08 seconds =       0.02 minutes
	total time  =          1 seconds =       0.02 minutes
Total time:
	user time   =      13.29 seconds =       0.22 minutes
	system time =       3.05 seconds =       0.05 minutes
	total time  =          5 seconds =       0.08 minutes

       N-Body: Complex Energy (fragments = (1,), basis = (1,):   -55.44996535934588)

       N-Body: Computing complex (4/6) with fragments (3,) in the basis of fragments (3,).


*** tstart() called on Vanadium
*** at Thu Sep 26 15:06:47 2019

   => Loading Basis Set <=

    Name: STO-3G
    Role: ORBITAL
    Keyword: BASIS
    atoms 1   entry N          line    71 file /home/carlosborca/miniconda3/envs/CrystaLattE/share/psi4/basis/sto-3g.gbs 
    atoms 2-4 entry H          line    19 file /home/carlosborca/miniconda3/envs/CrystaLattE/share/psi4/basis/sto-3g.gbs 


         ---------------------------------------------------------
                                   SCF
               by Justin Turney, Rob Parrish, Andy Simmonett
                          and Daniel G. A. Smith
                              RHF Reference
                        4 Threads,    476 MiB Core
         ---------------------------------------------------------

  ==> Geometry <==

    Molecular point group: c1
    Full point group: C1

    Geometry (in Bohr), charge = 0, multiplicity = 1:

       Center              X                  Y                   Z               Mass       
    ------------   -----------------  -----------------  -----------------  -----------------
         N            3.166464780000    -0.919107990000     3.928511960000    14.003074004430
         H            2.247356790000    -2.452894750000     3.381698920000     1.007825032230
         H            3.713277820000     0.000000000000     2.394725200000     1.007825032230
         H            4.700251540000    -1.465921030000     4.847619940000     1.007825032230

  Running in c1 symmetry.

  Rotational constants: A =     10.50680  B =      0.13254  C =      0.13153 [cm^-1]
  Rotational constants: A = 314985.91418  B =   3973.38736  C =   3943.16163 [MHz]
  Nuclear repulsion =   12.223291200851136

  Charge       = 0
  Multiplicity = 1
  Electrons    = 10
  Nalpha       = 5
  Nbeta        = 5

  ==> Algorithm <==

  SCF Algorithm Type is DF.
  DIIS enabled.
  MOM disabled.
  Fractional occupation disabled.
  Guess Type is SAD.
  Energy threshold   = 1.00e-08
  Density threshold  = 1.00e-06
  Integral threshold = 0.00e+00

  ==> Primary Basis <==

  Basis Set: STO-3G
    Blend: STO-3G
    Number of shells: 6
    Number of basis function: 8
    Number of Cartesian functions: 8
    Spherical Harmonics?: true
    Max angular momentum: 1

   => Loading Basis Set <=

    Name: (STO-3G AUX)
    Role: JKFIT
    Keyword: DF_BASIS_SCF
    atoms 1   entry N          line   263 file /home/carlosborca/miniconda3/envs/CrystaLattE/share/psi4/basis/def2-svp-jkfit.gbs 
    atoms 2-4 entry H          line    23 file /home/carlosborca/miniconda3/envs/CrystaLattE/share/psi4/basis/def2-svp-jkfit.gbs 

  ==> Pre-Iterations <==

   -------------------------------------------------------
    Irrep   Nso     Nmo     Nalpha   Nbeta   Ndocc  Nsocc
   -------------------------------------------------------
     A          8       8       0       0       0       0
   -------------------------------------------------------
    Total       8       8       5       5       5       0
   -------------------------------------------------------

  ==> Integral Setup <==

  DFHelper Memory: AOs need 0.000 GiB; user supplied 0.349 GiB. Using in-core AOs.

  ==> MemDFJK: Density-Fitted J/K Matrices <==

    J tasked:                   Yes
    K tasked:                   Yes
    wK tasked:                   No
    OpenMP threads:               4
    Memory [MiB]:               357
    Algorithm:                 Core
    Schwarz Cutoff:           1E-12
    Mask sparsity (%):       0.0000
    Fitting Condition:        1E-10

   => Auxiliary Basis Set <=

  Basis Set: (STO-3G AUX)
    Blend: DEF2-SVP-JKFIT
    Number of shells: 43
    Number of basis function: 131
    Number of Cartesian functions: 153
    Spherical Harmonics?: true
    Max angular momentum: 4

  Minimum eigenvalue in the overlap matrix is 2.5446568031E-01.
  Using Symmetric Orthogonalization.

  SCF Guess: Superposition of Atomic Densities via on-the-fly atomic UHF.

  ==> Iterations <==

                           Total Energy        Delta E     RMS |[F,P]|

   @DF-RHF iter SAD:   -54.58562506171286   -5.45856e+01   0.00000e+00 
   @DF-RHF iter   1:   -55.42957380017280   -8.43949e-01   2.08005e-02 DIIS
   @DF-RHF iter   2:   -55.44933997575210   -1.97662e-02   3.93998e-03 DIIS
   @DF-RHF iter   3:   -55.44993006299705   -5.90087e-04   8.13904e-04 DIIS
   @DF-RHF iter   4:   -55.44996535332049   -3.52903e-05   7.59270e-06 DIIS
   @DF-RHF iter   5:   -55.44996535917012   -5.84963e-09   9.86692e-07 DIIS
  Energy and wave function converged.


  ==> Post-Iterations <==

    Orbital Energies [Eh]
    ---------------------

    Doubly Occupied:                                                      

       1A    -15.300501     2A     -1.100051     3A     -0.584614  
       4A     -0.584614     5A     -0.351735  

    Virtual:                                                              

       6A      0.663673     7A      0.759629     8A      0.759629  

    Final Occupation by Irrep:
              A 
    DOCC [     5 ]

  @DF-RHF Final Energy:   -55.44996535917012

   => Energetics <=

    Nuclear Repulsion Energy =             12.2232912008511363
    One-Electron Energy =                 -99.5034370119316378
    Two-Electron Energy =                  31.8301804519103761
    Total Energy =                        -55.4499653591701218

Computation Completed


Properties will be evaluated at   0.000000,   0.000000,   0.000000 [a0]

Properties computed using the SCF density matrix

  Nuclear Dipole Moment: [e a0]
     X:    32.8261      Y:   -10.3526      Z:    38.1236

  Electronic Dipole Moment: [e a0]
     X:   -32.4312      Y:     9.9577      Z:   -38.5185

  Dipole Moment: [e a0]
     X:     0.3949      Y:    -0.3949      Z:    -0.3949     Total:     0.6840

  Dipole Moment: [D]
     X:     1.0038      Y:    -1.0038      Z:    -1.0038     Total:     1.7386


*** tstop() called on Vanadium at Thu Sep 26 15:06:49 2019
Module time:
	user time   =       3.94 seconds =       0.07 minutes
	system time =       0.61 seconds =       0.01 minutes
	total time  =          2 seconds =       0.03 minutes
Total time:
	user time   =      17.31 seconds =       0.29 minutes
	system time =       3.70 seconds =       0.06 minutes
	total time  =          7 seconds =       0.12 minutes

       N-Body: Complex Energy (fragments = (3,), basis = (3,):   -55.44996535917012)

       N-Body: Computing complex (5/6) with fragments (1,) in the basis of fragments (1, 2, 3).


*** tstart() called on Vanadium
*** at Thu Sep 26 15:06:49 2019

   => Loading Basis Set <=

    Name: STO-3G
    Role: ORBITAL
    Keyword: BASIS
    atoms 1, 5, 9         entry N          line    71 file /home/carlosborca/miniconda3/envs/CrystaLattE/share/psi4/basis/sto-3g.gbs 
    atoms 2-4, 6-8, 10-12 entry H          line    19 file /home/carlosborca/miniconda3/envs/CrystaLattE/share/psi4/basis/sto-3g.gbs 


         ---------------------------------------------------------
                                   SCF
               by Justin Turney, Rob Parrish, Andy Simmonett
                          and Daniel G. A. Smith
                              RHF Reference
                        4 Threads,    476 MiB Core
         ---------------------------------------------------------

  ==> Geometry <==

    Molecular point group: c1
    Full point group: C1

    Geometry (in Bohr), charge = 0, multiplicity = 1:

       Center              X                  Y                   Z               Mass       
    ------------   -----------------  -----------------  -----------------  -----------------
         N           -1.681155160000    -1.681155160000    -1.681155160000    14.003074004430
         H           -2.600263150000    -0.147368400000    -1.134342120000     1.007825032230
         H           -1.134342120000    -2.600263150000    -0.147368400000     1.007825032230
         H           -0.147368400000    -1.134342120000    -2.600263150000     1.007825032230
      Gh(N)           3.928511960000     3.166464780000    -0.919107990000    14.003074004430
      Gh(H)           2.394725200000     3.713277820000     0.000000000000     1.007825032230
      Gh(H)           4.847619940000     4.700251540000    -1.465921030000     1.007825032230
      Gh(H)           3.381698920000     2.247356790000    -2.452894750000     1.007825032230
      Gh(N)           3.166464780000    -0.919107990000     3.928511960000    14.003074004430
      Gh(H)           2.247356790000    -2.452894750000     3.381698920000     1.007825032230
      Gh(H)           3.713277820000     0.000000000000     2.394725200000     1.007825032230
      Gh(H)           4.700251540000    -1.465921030000     4.847619940000     1.007825032230

  Running in c1 symmetry.

  Rotational constants: A =      0.15032  B =      0.08677  C =      0.05860 [cm^-1]
  Rotational constants: A =   4506.36640  B =   2601.36363  C =   1756.85865 [MHz]
  Nuclear repulsion =   12.223291189591457

  Charge       = 0
  Multiplicity = 1
  Electrons    = 10
  Nalpha       = 5
  Nbeta        = 5

  ==> Algorithm <==

  SCF Algorithm Type is DF.
  DIIS enabled.
  MOM disabled.
  Fractional occupation disabled.
  Guess Type is SAD.
  Energy threshold   = 1.00e-08
  Density threshold  = 1.00e-06
  Integral threshold = 0.00e+00

  ==> Primary Basis <==

  Basis Set: STO-3G
    Blend: STO-3G
    Number of shells: 18
    Number of basis function: 24
    Number of Cartesian functions: 24
    Spherical Harmonics?: true
    Max angular momentum: 1

   => Loading Basis Set <=

    Name: (STO-3G AUX)
    Role: JKFIT
    Keyword: DF_BASIS_SCF
    atoms 1, 5, 9         entry N          line   263 file /home/carlosborca/miniconda3/envs/CrystaLattE/share/psi4/basis/def2-svp-jkfit.gbs 
    atoms 2-4, 6-8, 10-12 entry H          line    23 file /home/carlosborca/miniconda3/envs/CrystaLattE/share/psi4/basis/def2-svp-jkfit.gbs 

  ==> Pre-Iterations <==

   -------------------------------------------------------
    Irrep   Nso     Nmo     Nalpha   Nbeta   Ndocc  Nsocc
   -------------------------------------------------------
     A         24      24       0       0       0       0
   -------------------------------------------------------
    Total      24      24       5       5       5       0
   -------------------------------------------------------

  ==> Integral Setup <==

  DFHelper Memory: AOs need 0.003 GiB; user supplied 0.349 GiB. Using in-core AOs.

  ==> MemDFJK: Density-Fitted J/K Matrices <==

    J tasked:                   Yes
    K tasked:                   Yes
    wK tasked:                   No
    OpenMP threads:               4
    Memory [MiB]:               357
    Algorithm:                 Core
    Schwarz Cutoff:           1E-12
    Mask sparsity (%):       1.0417
    Fitting Condition:        1E-10

   => Auxiliary Basis Set <=

  Basis Set: (STO-3G AUX)
    Blend: DEF2-SVP-JKFIT
    Number of shells: 129
    Number of basis function: 393
    Number of Cartesian functions: 459
    Spherical Harmonics?: true
    Max angular momentum: 4

  Minimum eigenvalue in the overlap matrix is 2.4778092073E-01.
  Using Symmetric Orthogonalization.

  SCF Guess: Superposition of Atomic Densities via on-the-fly atomic UHF.

  ==> Iterations <==

                           Total Energy        Delta E     RMS |[F,P]|

   @DF-RHF iter SAD:   -54.58562026179700   -5.45856e+01   0.00000e+00 
   @DF-RHF iter   1:   -55.42971829968521   -8.44098e-01   6.93058e-03 DIIS
   @DF-RHF iter   2:   -55.44945670590906   -1.97384e-02   1.31552e-03 DIIS
   @DF-RHF iter   3:   -55.45004906934510   -5.92363e-04   2.71622e-04 DIIS
   @DF-RHF iter   4:   -55.45008449294882   -3.54236e-05   2.79554e-06 DIIS
   @DF-RHF iter   5:   -55.45008449943954   -6.49072e-09   7.24168e-07 DIIS
  Energy and wave function converged.


  ==> Post-Iterations <==

    Orbital Energies [Eh]
    ---------------------

    Doubly Occupied:                                                      

       1A    -15.300807     2A     -1.100252     3A     -0.584800  
       4A     -0.584783     5A     -0.351906  

    Virtual:                                                              

       6A      0.408641     7A      0.435644     8A      0.661407  
       9A      0.754146    10A      0.757544    11A      0.906701  
      12A      0.945071    13A      0.946219    14A      0.974221  
      15A      1.313815    16A      1.349691    17A      2.160473  
      18A      2.247911    19A      2.670724    20A      2.692881  
      21A      2.695774    22A      2.735789    23A     23.894398  
      24A     23.919204  

    Final Occupation by Irrep:
              A 
    DOCC [     5 ]

  @DF-RHF Final Energy:   -55.45008449943954

   => Energetics <=

    Nuclear Repulsion Energy =             12.2232911895914569
    One-Electron Energy =                 -99.5016661996849905
    Two-Electron Energy =                  31.8282905106539857
    Total Energy =                        -55.4500844994395408

Computation Completed


Properties will be evaluated at   0.000000,   0.000000,   0.000000 [a0]

Properties computed using the SCF density matrix

  Nuclear Dipole Moment: [e a0]
     X:   -15.6501      Y:   -15.6501      Z:   -15.6501

  Electronic Dipole Moment: [e a0]
     X:    16.0430      Y:    16.0443      Z:    16.0441

  Dipole Moment: [e a0]
     X:     0.3930      Y:     0.3943      Z:     0.3941     Total:     0.6820

  Dipole Moment: [D]
     X:     0.9988      Y:     1.0021      Z:     1.0016     Total:     1.7335


*** tstop() called on Vanadium at Thu Sep 26 15:06:51 2019
Module time:
	user time   =       4.49 seconds =       0.07 minutes
	system time =       1.00 seconds =       0.02 minutes
	total time  =          2 seconds =       0.03 minutes
Total time:
	user time   =      21.86 seconds =       0.36 minutes
	system time =       4.70 seconds =       0.08 minutes
	total time  =          9 seconds =       0.15 minutes

       N-Body: Complex Energy (fragments = (1,), basis = (1, 2, 3):   -55.45008449943954)

       N-Body: Computing complex (6/6) with fragments (2,) in the basis of fragments (2,).


*** tstart() called on Vanadium
*** at Thu Sep 26 15:06:51 2019

   => Loading Basis Set <=

    Name: STO-3G
    Role: ORBITAL
    Keyword: BASIS
    atoms 1   entry N          line    71 file /home/carlosborca/miniconda3/envs/CrystaLattE/share/psi4/basis/sto-3g.gbs 
    atoms 2-4 entry H          line    19 file /home/carlosborca/miniconda3/envs/CrystaLattE/share/psi4/basis/sto-3g.gbs 


         ---------------------------------------------------------
                                   SCF
               by Justin Turney, Rob Parrish, Andy Simmonett
                          and Daniel G. A. Smith
                              RHF Reference
                        4 Threads,    476 MiB Core
         ---------------------------------------------------------

  ==> Geometry <==

    Molecular point group: c1
    Full point group: C1

    Geometry (in Bohr), charge = 0, multiplicity = 1:

       Center              X                  Y                   Z               Mass       
    ------------   -----------------  -----------------  -----------------  -----------------
         N            3.928511960000     3.166464780000    -0.919107990000    14.003074004430
         H            2.394725200000     3.713277820000     0.000000000000     1.007825032230
         H            4.847619940000     4.700251540000    -1.465921030000     1.007825032230
         H            3.381698920000     2.247356790000    -2.452894750000     1.007825032230

  Running in c1 symmetry.

  Rotational constants: A =     10.50680  B =      0.13254  C =      0.13153 [cm^-1]
  Rotational constants: A = 314985.91418  B =   3973.38736  C =   3943.16163 [MHz]
  Nuclear repulsion =   12.223291200851136

  Charge       = 0
  Multiplicity = 1
  Electrons    = 10
  Nalpha       = 5
  Nbeta        = 5

  ==> Algorithm <==

  SCF Algorithm Type is DF.
  DIIS enabled.
  MOM disabled.
  Fractional occupation disabled.
  Guess Type is SAD.
  Energy threshold   = 1.00e-08
  Density threshold  = 1.00e-06
  Integral threshold = 0.00e+00

  ==> Primary Basis <==

  Basis Set: STO-3G
    Blend: STO-3G
    Number of shells: 6
    Number of basis function: 8
    Number of Cartesian functions: 8
    Spherical Harmonics?: true
    Max angular momentum: 1

   => Loading Basis Set <=

    Name: (STO-3G AUX)
    Role: JKFIT
    Keyword: DF_BASIS_SCF
    atoms 1   entry N          line   263 file /home/carlosborca/miniconda3/envs/CrystaLattE/share/psi4/basis/def2-svp-jkfit.gbs 
    atoms 2-4 entry H          line    23 file /home/carlosborca/miniconda3/envs/CrystaLattE/share/psi4/basis/def2-svp-jkfit.gbs 

  ==> Pre-Iterations <==

   -------------------------------------------------------
    Irrep   Nso     Nmo     Nalpha   Nbeta   Ndocc  Nsocc
   -------------------------------------------------------
     A          8       8       0       0       0       0
   -------------------------------------------------------
    Total       8       8       5       5       5       0
   -------------------------------------------------------

  ==> Integral Setup <==

  DFHelper Memory: AOs need 0.000 GiB; user supplied 0.349 GiB. Using in-core AOs.

  ==> MemDFJK: Density-Fitted J/K Matrices <==

    J tasked:                   Yes
    K tasked:                   Yes
    wK tasked:                   No
    OpenMP threads:               4
    Memory [MiB]:               357
    Algorithm:                 Core
    Schwarz Cutoff:           1E-12
    Mask sparsity (%):       0.0000
    Fitting Condition:        1E-10

   => Auxiliary Basis Set <=

  Basis Set: (STO-3G AUX)
    Blend: DEF2-SVP-JKFIT
    Number of shells: 43
    Number of basis function: 131
    Number of Cartesian functions: 153
    Spherical Harmonics?: true
    Max angular momentum: 4

  Minimum eigenvalue in the overlap matrix is 2.5446568031E-01.
  Using Symmetric Orthogonalization.

  SCF Guess: Superposition of Atomic Densities via on-the-fly atomic UHF.

  ==> Iterations <==

                           Total Energy        Delta E     RMS |[F,P]|

   @DF-RHF iter SAD:   -54.58562506171484   -5.45856e+01   0.00000e+00 
   @DF-RHF iter   1:   -55.42957380017459   -8.43949e-01   2.08005e-02 DIIS
   @DF-RHF iter   2:   -55.44933997575386   -1.97662e-02   3.93998e-03 DIIS
   @DF-RHF iter   3:   -55.44993006299885   -5.90087e-04   8.13904e-04 DIIS
   @DF-RHF iter   4:   -55.44996535332225   -3.52903e-05   7.59270e-06 DIIS
   @DF-RHF iter   5:   -55.44996535917189   -5.84964e-09   9.86692e-07 DIIS
  Energy and wave function converged.


  ==> Post-Iterations <==

    Orbital Energies [Eh]
    ---------------------

    Doubly Occupied:                                                      

       1A    -15.300501     2A     -1.100051     3A     -0.584614  
       4A     -0.584614     5A     -0.351735  

    Virtual:                                                              

       6A      0.663673     7A      0.759629     8A      0.759629  

    Final Occupation by Irrep:
              A 
    DOCC [     5 ]

  @DF-RHF Final Energy:   -55.44996535917189

   => Energetics <=

    Nuclear Repulsion Energy =             12.2232912008511363
    One-Electron Energy =                 -99.5034370119357163
    Two-Electron Energy =                  31.8301804519126925
    Total Energy =                        -55.4499653591718840

Computation Completed


Properties will be evaluated at   0.000000,   0.000000,   0.000000 [a0]

Properties computed using the SCF density matrix

  Nuclear Dipole Moment: [e a0]
     X:    38.1236      Y:    32.8261      Z:   -10.3526

  Electronic Dipole Moment: [e a0]
     X:   -38.5185      Y:   -32.4312      Z:     9.9577

  Dipole Moment: [e a0]
     X:    -0.3949      Y:     0.3949      Z:    -0.3949     Total:     0.6840

  Dipole Moment: [D]
     X:    -1.0038      Y:     1.0038      Z:    -1.0038     Total:     1.7386


*** tstop() called on Vanadium at Thu Sep 26 15:06:52 2019
Module time:
	user time   =       3.69 seconds =       0.06 minutes
	system time =       0.72 seconds =       0.01 minutes
	total time  =          1 seconds =       0.02 minutes
Total time:
	user time   =      25.61 seconds =       0.43 minutes
	system time =       5.42 seconds =       0.09 minutes
	total time  =         10 seconds =       0.17 minutes

       N-Body: Complex Energy (fragments = (2,), basis = (2,):   -55.44996535917189)

   ==> N-Body: Now computing 2-body complexes <==


       N-Body: Computing complex (1/3) with fragments (1, 3) in the basis of fragments (1, 2, 3).


*** tstart() called on Vanadium
*** at Thu Sep 26 15:06:52 2019

   => Loading Basis Set <=

    Name: STO-3G
    Role: ORBITAL
    Keyword: BASIS
    atoms 1, 5, 9         entry N          line    71 file /home/carlosborca/miniconda3/envs/CrystaLattE/share/psi4/basis/sto-3g.gbs 
    atoms 2-4, 6-8, 10-12 entry H          line    19 file /home/carlosborca/miniconda3/envs/CrystaLattE/share/psi4/basis/sto-3g.gbs 


         ---------------------------------------------------------
                                   SCF
               by Justin Turney, Rob Parrish, Andy Simmonett
                          and Daniel G. A. Smith
                              RHF Reference
                        4 Threads,    476 MiB Core
         ---------------------------------------------------------

  ==> Geometry <==

    Molecular point group: c1
    Full point group: C1

    Geometry (in Bohr), charge = 0, multiplicity = 1:

       Center              X                  Y                   Z               Mass       
    ------------   -----------------  -----------------  -----------------  -----------------
         N           -1.681155160000    -1.681155160000    -1.681155160000    14.003074004430
         H           -2.600263150000    -0.147368400000    -1.134342120000     1.007825032230
         H           -1.134342120000    -2.600263150000    -0.147368400000     1.007825032230
         H           -0.147368400000    -1.134342120000    -2.600263150000     1.007825032230
      Gh(N)           3.928511960000     3.166464780000    -0.919107990000    14.003074004430
      Gh(H)           2.394725200000     3.713277820000     0.000000000000     1.007825032230
      Gh(H)           4.847619940000     4.700251540000    -1.465921030000     1.007825032230
      Gh(H)           3.381698920000     2.247356790000    -2.452894750000     1.007825032230
         N            3.166464780000    -0.919107990000     3.928511960000    14.003074004430
         H            2.247356790000    -2.452894750000     3.381698920000     1.007825032230
         H            3.713277820000     0.000000000000     2.394725200000     1.007825032230
         H            4.700251540000    -1.465921030000     4.847619940000     1.007825032230

  Running in c1 symmetry.

  Rotational constants: A =      0.15032  B =      0.08677  C =      0.05860 [cm^-1]
  Rotational constants: A =   4506.36640  B =   2601.36363  C =   1756.85865 [MHz]
  Nuclear repulsion =   38.181027420838156

  Charge       = 0
  Multiplicity = 1
  Electrons    = 20
  Nalpha       = 10
  Nbeta        = 10

  ==> Algorithm <==

  SCF Algorithm Type is DF.
  DIIS enabled.
  MOM disabled.
  Fractional occupation disabled.
  Guess Type is SAD.
  Energy threshold   = 1.00e-08
  Density threshold  = 1.00e-06
  Integral threshold = 0.00e+00

  ==> Primary Basis <==

  Basis Set: STO-3G
    Blend: STO-3G
    Number of shells: 18
    Number of basis function: 24
    Number of Cartesian functions: 24
    Spherical Harmonics?: true
    Max angular momentum: 1

   => Loading Basis Set <=

    Name: (STO-3G AUX)
    Role: JKFIT
    Keyword: DF_BASIS_SCF
    atoms 1, 5, 9         entry N          line   263 file /home/carlosborca/miniconda3/envs/CrystaLattE/share/psi4/basis/def2-svp-jkfit.gbs 
    atoms 2-4, 6-8, 10-12 entry H          line    23 file /home/carlosborca/miniconda3/envs/CrystaLattE/share/psi4/basis/def2-svp-jkfit.gbs 

  ==> Pre-Iterations <==

   -------------------------------------------------------
    Irrep   Nso     Nmo     Nalpha   Nbeta   Ndocc  Nsocc
   -------------------------------------------------------
     A         24      24       0       0       0       0
   -------------------------------------------------------
    Total      24      24      10      10      10       0
   -------------------------------------------------------

  ==> Integral Setup <==

  DFHelper Memory: AOs need 0.003 GiB; user supplied 0.349 GiB. Using in-core AOs.

  ==> MemDFJK: Density-Fitted J/K Matrices <==

    J tasked:                   Yes
    K tasked:                   Yes
    wK tasked:                   No
    OpenMP threads:               4
    Memory [MiB]:               357
    Algorithm:                 Core
    Schwarz Cutoff:           1E-12
    Mask sparsity (%):       1.0417
    Fitting Condition:        1E-10

   => Auxiliary Basis Set <=

  Basis Set: (STO-3G AUX)
    Blend: DEF2-SVP-JKFIT
    Number of shells: 129
    Number of basis function: 393
    Number of Cartesian functions: 459
    Spherical Harmonics?: true
    Max angular momentum: 4

  Minimum eigenvalue in the overlap matrix is 2.4778092073E-01.
  Using Symmetric Orthogonalization.

  SCF Guess: Superposition of Atomic Densities via on-the-fly atomic UHF.

  ==> Iterations <==

                           Total Energy        Delta E     RMS |[F,P]|

   @DF-RHF iter SAD:  -109.17187175380521   -1.09172e+02   0.00000e+00 
   @DF-RHF iter   1:  -110.85882161028663   -1.68695e+00   9.82751e-03 DIIS
   @DF-RHF iter   2:  -110.89845065230146   -3.96290e-02   1.86566e-03 DIIS
   @DF-RHF iter   3:  -110.89963988722320   -1.18923e-03   3.84721e-04 DIIS
   @DF-RHF iter   4:  -110.89971092034249   -7.10331e-05   4.40867e-06 DIIS
   @DF-RHF iter   5:  -110.89971093558842   -1.52459e-08   1.04292e-06 DIIS
   @DF-RHF iter   6:  -110.89971093654027   -9.51857e-10   1.19472e-07 DIIS
  Energy and wave function converged.


  ==> Post-Iterations <==

    Orbital Energies [Eh]
    ---------------------

    Doubly Occupied:                                                      

       1A    -15.309676     2A    -15.302918     3A     -1.109321  
       4A     -1.102157     5A     -0.596368     6A     -0.593619  
       7A     -0.586678     8A     -0.584720     9A     -0.360675  
      10A     -0.353754  

    Virtual:                                                              

      11A      0.414090    12A      0.633640    13A      0.677351  
      14A      0.733738    15A      0.751021    16A      0.755283  
      17A      0.783604    18A      0.940483    19A      0.946899  
      20A      1.327291    21A      2.208554    22A      2.689149  
      23A      2.689770    24A     23.900723  

    Final Occupation by Irrep:
              A 
    DOCC [    10 ]

  @DF-RHF Final Energy:  -110.89971093654027

   => Energetics <=

    Nuclear Repulsion Energy =             38.1810274208381557
    One-Electron Energy =                -226.3617026203317266
    Two-Electron Energy =                  77.2809642629533045
    Total Energy =                       -110.8997109365402736

Computation Completed


Properties will be evaluated at   0.000000,   0.000000,   0.000000 [a0]

Properties computed using the SCF density matrix

  Nuclear Dipole Moment: [e a0]
     X:    17.1761      Y:   -26.0026      Z:    22.4736

  Electronic Dipole Moment: [e a0]
     X:   -16.3875      Y:    26.0065      Z:   -22.4652

  Dipole Moment: [e a0]
     X:     0.7886      Y:     0.0039      Z:     0.0083     Total:     0.7887

  Dipole Moment: [D]
     X:     2.0044      Y:     0.0099      Z:     0.0211     Total:     2.0046


*** tstop() called on Vanadium at Thu Sep 26 15:06:54 2019
Module time:
	user time   =       4.47 seconds =       0.07 minutes
	system time =       1.00 seconds =       0.02 minutes
	total time  =          2 seconds =       0.03 minutes
Total time:
	user time   =      30.11 seconds =       0.50 minutes
	system time =       6.45 seconds =       0.11 minutes
	total time  =         12 seconds =       0.20 minutes

       N-Body: Complex Energy (fragments = (1, 3), basis = (1, 2, 3):  -110.89971093654027)

       N-Body: Computing complex (2/3) with fragments (2, 3) in the basis of fragments (1, 2, 3).


*** tstart() called on Vanadium
*** at Thu Sep 26 15:06:54 2019

   => Loading Basis Set <=

    Name: STO-3G
    Role: ORBITAL
    Keyword: BASIS
    atoms 1, 5, 9         entry N          line    71 file /home/carlosborca/miniconda3/envs/CrystaLattE/share/psi4/basis/sto-3g.gbs 
    atoms 2-4, 6-8, 10-12 entry H          line    19 file /home/carlosborca/miniconda3/envs/CrystaLattE/share/psi4/basis/sto-3g.gbs 


         ---------------------------------------------------------
                                   SCF
               by Justin Turney, Rob Parrish, Andy Simmonett
                          and Daniel G. A. Smith
                              RHF Reference
                        4 Threads,    476 MiB Core
         ---------------------------------------------------------

  ==> Geometry <==

    Molecular point group: c1
    Full point group: C1

    Geometry (in Bohr), charge = 0, multiplicity = 1:

       Center              X                  Y                   Z               Mass       
    ------------   -----------------  -----------------  -----------------  -----------------
      Gh(N)          -1.681155160000    -1.681155160000    -1.681155160000    14.003074004430
      Gh(H)          -2.600263150000    -0.147368400000    -1.134342120000     1.007825032230
      Gh(H)          -1.134342120000    -2.600263150000    -0.147368400000     1.007825032230
      Gh(H)          -0.147368400000    -1.134342120000    -2.600263150000     1.007825032230
         N            3.928511960000     3.166464780000    -0.919107990000    14.003074004430
         H            2.394725200000     3.713277820000     0.000000000000     1.007825032230
         H            4.847619940000     4.700251540000    -1.465921030000     1.007825032230
         H            3.381698920000     2.247356790000    -2.452894750000     1.007825032230
         N            3.166464780000    -0.919107990000     3.928511960000    14.003074004430
         H            2.247356790000    -2.452894750000     3.381698920000     1.007825032230
         H            3.713277820000     0.000000000000     2.394725200000     1.007825032230
         H            4.700251540000    -1.465921030000     4.847619940000     1.007825032230

  Running in c1 symmetry.

  Rotational constants: A =      0.15032  B =      0.08677  C =      0.05860 [cm^-1]
  Rotational constants: A =   4506.36640  B =   2601.36363  C =   1756.85865 [MHz]
  Nuclear repulsion =   39.871673339264788

  Charge       = 0
  Multiplicity = 1
  Electrons    = 20
  Nalpha       = 10
  Nbeta        = 10

  ==> Algorithm <==

  SCF Algorithm Type is DF.
  DIIS enabled.
  MOM disabled.
  Fractional occupation disabled.
  Guess Type is SAD.
  Energy threshold   = 1.00e-08
  Density threshold  = 1.00e-06
  Integral threshold = 0.00e+00

  ==> Primary Basis <==

  Basis Set: STO-3G
    Blend: STO-3G
    Number of shells: 18
    Number of basis function: 24
    Number of Cartesian functions: 24
    Spherical Harmonics?: true
    Max angular momentum: 1

   => Loading Basis Set <=

    Name: (STO-3G AUX)
    Role: JKFIT
    Keyword: DF_BASIS_SCF
    atoms 1, 5, 9         entry N          line   263 file /home/carlosborca/miniconda3/envs/CrystaLattE/share/psi4/basis/def2-svp-jkfit.gbs 
    atoms 2-4, 6-8, 10-12 entry H          line    23 file /home/carlosborca/miniconda3/envs/CrystaLattE/share/psi4/basis/def2-svp-jkfit.gbs 

  ==> Pre-Iterations <==

   -------------------------------------------------------
    Irrep   Nso     Nmo     Nalpha   Nbeta   Ndocc  Nsocc
   -------------------------------------------------------
     A         24      24       0       0       0       0
   -------------------------------------------------------
    Total      24      24      10      10      10       0
   -------------------------------------------------------

  ==> Integral Setup <==

  DFHelper Memory: AOs need 0.003 GiB; user supplied 0.349 GiB. Using in-core AOs.

  ==> MemDFJK: Density-Fitted J/K Matrices <==

    J tasked:                   Yes
    K tasked:                   Yes
    wK tasked:                   No
    OpenMP threads:               4
    Memory [MiB]:               357
    Algorithm:                 Core
    Schwarz Cutoff:           1E-12
    Mask sparsity (%):       1.0417
    Fitting Condition:        1E-10

   => Auxiliary Basis Set <=

  Basis Set: (STO-3G AUX)
    Blend: DEF2-SVP-JKFIT
    Number of shells: 129
    Number of basis function: 393
    Number of Cartesian functions: 459
    Spherical Harmonics?: true
    Max angular momentum: 4

  Minimum eigenvalue in the overlap matrix is 2.4778092073E-01.
  Using Symmetric Orthogonalization.

  SCF Guess: Superposition of Atomic Densities via on-the-fly atomic UHF.

  ==> Iterations <==

                           Total Energy        Delta E     RMS |[F,P]|

   @DF-RHF iter SAD:  -109.17478583327924   -1.09175e+02   0.00000e+00 
   @DF-RHF iter   1:  -110.86438941284115   -1.68960e+00   9.52276e-03 DIIS
   @DF-RHF iter   2:  -110.90209931894192   -3.77099e-02   1.79116e-03 DIIS
   @DF-RHF iter   3:  -110.90322158179943   -1.12226e-03   3.73516e-04 DIIS
   @DF-RHF iter   4:  -110.90328897849669   -6.73967e-05   6.35400e-06 DIIS
   @DF-RHF iter   5:  -110.90328900129325   -2.27966e-08   1.36730e-06 DIIS
   @DF-RHF iter   6:  -110.90328900258899   -1.29575e-09   3.40224e-07 DIIS
  Energy and wave function converged.


  ==> Post-Iterations <==

    Orbital Energies [Eh]
    ---------------------

    Doubly Occupied:                                                      

       1A    -15.307458     2A    -15.279030     3A     -1.107034  
       4A     -1.081735     5A     -0.594066     6A     -0.591454  
       7A     -0.568175     8A     -0.562454     9A     -0.360496  
      10A     -0.334309  

    Virtual:                                                              

      11A      0.427013    12A      0.648929    13A      0.690513  
      14A      0.749412    15A      0.753003    16A      0.774040  
      17A      0.795420    18A      0.945803    19A      0.952118  
      20A      1.338154    21A      2.204928    22A      2.698825  
      23A      2.701266    24A     23.910957  

    Final Occupation by Irrep:
              A 
    DOCC [    10 ]

  @DF-RHF Final Energy:  -110.90328900258899

   => Energetics <=

    Nuclear Repulsion Energy =             39.8716733392647882
    One-Electron Energy =                -229.9775086257914722
    Two-Electron Energy =                  79.2025462839376928
    Total Energy =                       -110.9032890025889913

Computation Completed


Properties will be evaluated at   0.000000,   0.000000,   0.000000 [a0]

Properties computed using the SCF density matrix

  Nuclear Dipole Moment: [e a0]
     X:    70.9498      Y:    22.4736      Z:    27.7711

  Electronic Dipole Moment: [e a0]
     X:   -70.9395      Y:   -22.4131      Z:   -28.6070

  Dipole Moment: [e a0]
     X:     0.0103      Y:     0.0605      Z:    -0.8359     Total:     0.8382

  Dipole Moment: [D]
     X:     0.0261      Y:     0.1537      Z:    -2.1247     Total:     2.1304


*** tstop() called on Vanadium at Thu Sep 26 15:06:57 2019
Module time:
	user time   =       4.70 seconds =       0.08 minutes
	system time =       0.83 seconds =       0.01 minutes
	total time  =          3 seconds =       0.05 minutes
Total time:
	user time   =      34.93 seconds =       0.58 minutes
	system time =       7.28 seconds =       0.12 minutes
	total time  =         15 seconds =       0.25 minutes

       N-Body: Complex Energy (fragments = (2, 3), basis = (1, 2, 3):  -110.90328900258899)

       N-Body: Computing complex (3/3) with fragments (1, 2) in the basis of fragments (1, 2, 3).


*** tstart() called on Vanadium
*** at Thu Sep 26 15:06:57 2019

   => Loading Basis Set <=

    Name: STO-3G
    Role: ORBITAL
    Keyword: BASIS
    atoms 1, 5, 9         entry N          line    71 file /home/carlosborca/miniconda3/envs/CrystaLattE/share/psi4/basis/sto-3g.gbs 
    atoms 2-4, 6-8, 10-12 entry H          line    19 file /home/carlosborca/miniconda3/envs/CrystaLattE/share/psi4/basis/sto-3g.gbs 


         ---------------------------------------------------------
                                   SCF
               by Justin Turney, Rob Parrish, Andy Simmonett
                          and Daniel G. A. Smith
                              RHF Reference
                        4 Threads,    476 MiB Core
         ---------------------------------------------------------

  ==> Geometry <==

    Molecular point group: c1
    Full point group: C1

    Geometry (in Bohr), charge = 0, multiplicity = 1:

       Center              X                  Y                   Z               Mass       
    ------------   -----------------  -----------------  -----------------  -----------------
         N           -1.681155160000    -1.681155160000    -1.681155160000    14.003074004430
         H           -2.600263150000    -0.147368400000    -1.134342120000     1.007825032230
         H           -1.134342120000    -2.600263150000    -0.147368400000     1.007825032230
         H           -0.147368400000    -1.134342120000    -2.600263150000     1.007825032230
         N            3.928511960000     3.166464780000    -0.919107990000    14.003074004430
         H            2.394725200000     3.713277820000     0.000000000000     1.007825032230
         H            4.847619940000     4.700251540000    -1.465921030000     1.007825032230
         H            3.381698920000     2.247356790000    -2.452894750000     1.007825032230
      Gh(N)           3.166464780000    -0.919107990000     3.928511960000    14.003074004430
      Gh(H)           2.247356790000    -2.452894750000     3.381698920000     1.007825032230
      Gh(H)           3.713277820000     0.000000000000     2.394725200000     1.007825032230
      Gh(H)           4.700251540000    -1.465921030000     4.847619940000     1.007825032230

  Running in c1 symmetry.

  Rotational constants: A =      0.15032  B =      0.08677  C =      0.05860 [cm^-1]
  Rotational constants: A =   4506.36640  B =   2601.36363  C =   1756.85865 [MHz]
  Nuclear repulsion =   38.181027420838156

  Charge       = 0
  Multiplicity = 1
  Electrons    = 20
  Nalpha       = 10
  Nbeta        = 10

  ==> Algorithm <==

  SCF Algorithm Type is DF.
  DIIS enabled.
  MOM disabled.
  Fractional occupation disabled.
  Guess Type is SAD.
  Energy threshold   = 1.00e-08
  Density threshold  = 1.00e-06
  Integral threshold = 0.00e+00

  ==> Primary Basis <==

  Basis Set: STO-3G
    Blend: STO-3G
    Number of shells: 18
    Number of basis function: 24
    Number of Cartesian functions: 24
    Spherical Harmonics?: true
    Max angular momentum: 1

   => Loading Basis Set <=

    Name: (STO-3G AUX)
    Role: JKFIT
    Keyword: DF_BASIS_SCF
    atoms 1, 5, 9         entry N          line   263 file /home/carlosborca/miniconda3/envs/CrystaLattE/share/psi4/basis/def2-svp-jkfit.gbs 
    atoms 2-4, 6-8, 10-12 entry H          line    23 file /home/carlosborca/miniconda3/envs/CrystaLattE/share/psi4/basis/def2-svp-jkfit.gbs 

  ==> Pre-Iterations <==

   -------------------------------------------------------
    Irrep   Nso     Nmo     Nalpha   Nbeta   Ndocc  Nsocc
   -------------------------------------------------------
     A         24      24       0       0       0       0
   -------------------------------------------------------
    Total      24      24      10      10      10       0
   -------------------------------------------------------

  ==> Integral Setup <==

  DFHelper Memory: AOs need 0.003 GiB; user supplied 0.349 GiB. Using in-core AOs.

  ==> MemDFJK: Density-Fitted J/K Matrices <==

    J tasked:                   Yes
    K tasked:                   Yes
    wK tasked:                   No
    OpenMP threads:               4
    Memory [MiB]:               357
    Algorithm:                 Core
    Schwarz Cutoff:           1E-12
    Mask sparsity (%):       1.0417
    Fitting Condition:        1E-10

   => Auxiliary Basis Set <=

  Basis Set: (STO-3G AUX)
    Blend: DEF2-SVP-JKFIT
    Number of shells: 129
    Number of basis function: 393
    Number of Cartesian functions: 459
    Spherical Harmonics?: true
    Max angular momentum: 4

  Minimum eigenvalue in the overlap matrix is 2.4778092073E-01.
  Using Symmetric Orthogonalization.

  SCF Guess: Superposition of Atomic Densities via on-the-fly atomic UHF.

  ==> Iterations <==

                           Total Energy        Delta E     RMS |[F,P]|

   @DF-RHF iter SAD:  -109.17187606231228   -1.09172e+02   0.00000e+00 
   @DF-RHF iter   1:  -110.86047732314059   -1.68860e+00   9.78844e-03 DIIS
   @DF-RHF iter   2:  -110.89979301375783   -3.93157e-02   1.87771e-03 DIIS
   @DF-RHF iter   3:  -110.90099791318147   -1.20490e-03   3.86645e-04 DIIS
   @DF-RHF iter   4:  -110.90106992193324   -7.20088e-05   4.76576e-06 DIIS
   @DF-RHF iter   5:  -110.90106993693088   -1.49976e-08   1.32864e-06 DIIS
   @DF-RHF iter   6:  -110.90106993839380   -1.46292e-09   3.30945e-07 DIIS
  Energy and wave function converged.


  ==> Post-Iterations <==

    Orbital Energies [Eh]
    ---------------------

    Doubly Occupied:                                                      

       1A    -15.311893     2A    -15.302857     3A     -1.110357  
       4A     -1.102116     5A     -0.597198     6A     -0.594632  
       7A     -0.586633     8A     -0.584875     9A     -0.361886  
      10A     -0.353724  

    Virtual:                                                              

      11A      0.438960    12A      0.630889    13A      0.676863  
      14A      0.732340    15A      0.748929    16A      0.756492  
      17A      0.783290    18A      0.956793    19A      0.971121  
      20A      1.349244    21A      2.218775    22A      2.707627  
      23A      2.718387    24A     23.921768  

    Final Occupation by Irrep:
              A 
    DOCC [    10 ]

  @DF-RHF Final Energy:  -110.90106993839380

   => Energetics <=

    Nuclear Repulsion Energy =             38.1810274208381557
    One-Electron Energy =                -226.3518564190057987
    Two-Electron Energy =                  77.2697590597738468
    Total Energy =                       -110.9010699383938032

Computation Completed


Properties will be evaluated at   0.000000,   0.000000,   0.000000 [a0]

Properties computed using the SCF density matrix

  Nuclear Dipole Moment: [e a0]
     X:    22.4736      Y:    17.1761      Z:   -26.0026

  Electronic Dipole Moment: [e a0]
     X:   -22.4676      Y:   -16.3749      Z:    25.9967

  Dipole Moment: [e a0]
     X:     0.0059      Y:     0.8011      Z:    -0.0060     Total:     0.8012

  Dipole Moment: [D]
     X:     0.0151      Y:     2.0363      Z:    -0.0152     Total:     2.0364


*** tstop() called on Vanadium at Thu Sep 26 15:06:59 2019
Module time:
	user time   =       4.79 seconds =       0.08 minutes
	system time =       0.83 seconds =       0.01 minutes
	total time  =          2 seconds =       0.03 minutes
Total time:
	user time   =      39.79 seconds =       0.66 minutes
	system time =       8.11 seconds =       0.14 minutes
	total time  =         17 seconds =       0.28 minutes

       N-Body: Complex Energy (fragments = (1, 2), basis = (1, 2, 3):  -110.90106993839380)

   ==> N-Body: Now computing 3-body complexes <==


       N-Body: Computing complex (1/1) with fragments (1, 2, 3) in the basis of fragments (1, 2, 3).


*** tstart() called on Vanadium
*** at Thu Sep 26 15:06:59 2019

   => Loading Basis Set <=

    Name: STO-3G
    Role: ORBITAL
    Keyword: BASIS
    atoms 1, 5, 9         entry N          line    71 file /home/carlosborca/miniconda3/envs/CrystaLattE/share/psi4/basis/sto-3g.gbs 
    atoms 2-4, 6-8, 10-12 entry H          line    19 file /home/carlosborca/miniconda3/envs/CrystaLattE/share/psi4/basis/sto-3g.gbs 


         ---------------------------------------------------------
                                   SCF
               by Justin Turney, Rob Parrish, Andy Simmonett
                          and Daniel G. A. Smith
                              RHF Reference
                        4 Threads,    476 MiB Core
         ---------------------------------------------------------

  ==> Geometry <==

    Molecular point group: c1
    Full point group: C1

    Geometry (in Bohr), charge = 0, multiplicity = 1:

       Center              X                  Y                   Z               Mass       
    ------------   -----------------  -----------------  -----------------  -----------------
         N           -1.681155160000    -1.681155160000    -1.681155160000    14.003074004430
         H           -2.600263150000    -0.147368400000    -1.134342120000     1.007825032230
         H           -1.134342120000    -2.600263150000    -0.147368400000     1.007825032230
         H           -0.147368400000    -1.134342120000    -2.600263150000     1.007825032230
         N            3.928511960000     3.166464780000    -0.919107990000    14.003074004430
         H            2.394725200000     3.713277820000     0.000000000000     1.007825032230
         H            4.847619940000     4.700251540000    -1.465921030000     1.007825032230
         H            3.381698920000     2.247356790000    -2.452894750000     1.007825032230
         N            3.166464780000    -0.919107990000     3.928511960000    14.003074004430
         H            2.247356790000    -2.452894750000     3.381698920000     1.007825032230
         H            3.713277820000     0.000000000000     2.394725200000     1.007825032230
         H            4.700251540000    -1.465921030000     4.847619940000     1.007825032230

  Running in c1 symmetry.

  Rotational constants: A =      0.15032  B =      0.08677  C =      0.05860 [cm^-1]
  Rotational constants: A =   4506.36640  B =   2601.36363  C =   1756.85865 [MHz]
  Nuclear repulsion =   79.563854589647377

  Charge       = 0
  Multiplicity = 1
  Electrons    = 30
  Nalpha       = 15
  Nbeta        = 15

  ==> Algorithm <==

  SCF Algorithm Type is DF.
  DIIS enabled.
  MOM disabled.
  Fractional occupation disabled.
  Guess Type is SAD.
  Energy threshold   = 1.00e-08
  Density threshold  = 1.00e-06
  Integral threshold = 0.00e+00

  ==> Primary Basis <==

  Basis Set: STO-3G
    Blend: STO-3G
    Number of shells: 18
    Number of basis function: 24
    Number of Cartesian functions: 24
    Spherical Harmonics?: true
    Max angular momentum: 1

   => Loading Basis Set <=

    Name: (STO-3G AUX)
    Role: JKFIT
    Keyword: DF_BASIS_SCF
    atoms 1, 5, 9         entry N          line   263 file /home/carlosborca/miniconda3/envs/CrystaLattE/share/psi4/basis/def2-svp-jkfit.gbs 
    atoms 2-4, 6-8, 10-12 entry H          line    23 file /home/carlosborca/miniconda3/envs/CrystaLattE/share/psi4/basis/def2-svp-jkfit.gbs 

  ==> Pre-Iterations <==

   -------------------------------------------------------
    Irrep   Nso     Nmo     Nalpha   Nbeta   Ndocc  Nsocc
   -------------------------------------------------------
     A         24      24       0       0       0       0
   -------------------------------------------------------
    Total      24      24      15      15      15       0
   -------------------------------------------------------

  ==> Integral Setup <==

  DFHelper Memory: AOs need 0.003 GiB; user supplied 0.349 GiB. Using in-core AOs.

  ==> MemDFJK: Density-Fitted J/K Matrices <==

    J tasked:                   Yes
    K tasked:                   Yes
    wK tasked:                   No
    OpenMP threads:               4
    Memory [MiB]:               357
    Algorithm:                 Core
    Schwarz Cutoff:           1E-12
    Mask sparsity (%):       1.0417
    Fitting Condition:        1E-10

   => Auxiliary Basis Set <=

  Basis Set: (STO-3G AUX)
    Blend: DEF2-SVP-JKFIT
    Number of shells: 129
    Number of basis function: 393
    Number of Cartesian functions: 459
    Spherical Harmonics?: true
    Max angular momentum: 4

  Minimum eigenvalue in the overlap matrix is 2.4778092073E-01.
  Using Symmetric Orthogonalization.

  SCF Guess: Superposition of Atomic Densities via on-the-fly atomic UHF.

  ==> Iterations <==

                           Total Energy        Delta E     RMS |[F,P]|

   @DF-RHF iter SAD:  -163.76166572888678   -1.63762e+02   0.00000e+00 
   @DF-RHF iter   1:  -166.29296352172790   -2.53130e+00   1.18135e-02 DIIS
   @DF-RHF iter   2:  -166.35066840236200   -5.77049e-02   2.23147e-03 DIIS
   @DF-RHF iter   3:  -166.35239486789933   -1.72647e-03   4.63664e-04 DIIS
   @DF-RHF iter   4:  -166.35249851478119   -1.03647e-04   7.25503e-06 DIIS
   @DF-RHF iter   5:  -166.35249854577083   -3.09896e-08   1.86236e-06 DIIS
   @DF-RHF iter   6:  -166.35249854837107   -2.60025e-09   4.31670e-07 DIIS
  Energy and wave function converged.


  ==> Post-Iterations <==

    Orbital Energies [Eh]
    ---------------------

    Doubly Occupied:                                                      

       1A    -15.316237     2A    -15.305068     3A    -15.287948  
       4A     -1.115956     5A     -1.104387     6A     -1.090622  
       7A     -0.603324     8A     -0.601739     9A     -0.590270  
      10A     -0.587862    11A     -0.575659    12A     -0.571315  
      13A     -0.369083    14A     -0.355797    15A     -0.342971  

    Virtual:                                                              

      16A      0.616437    17A      0.665920    18A      0.684654  
      19A      0.731460    20A      0.744099    21A      0.748612  
      22A      0.776743    23A      0.781813    24A      0.796029  

    Final Occupation by Irrep:
              A 
    DOCC [    15 ]

  @DF-RHF Final Energy:  -166.35249854837107

   => Energetics <=

    Nuclear Repulsion Energy =             79.5638545896473772
    One-Electron Energy =                -384.1962374561414322
    Two-Electron Energy =                 138.2798843181229529
    Total Energy =                       -166.3524985483710736

Computation Completed


Properties will be evaluated at   0.000000,   0.000000,   0.000000 [a0]

Properties computed using the SCF density matrix

  Nuclear Dipole Moment: [e a0]
     X:    55.2997      Y:     6.8235      Z:    12.1210

  Electronic Dipole Moment: [e a0]
     X:   -54.8894      Y:    -6.3638      Z:   -12.5493

  Dipole Moment: [e a0]
     X:     0.4103      Y:     0.4597      Z:    -0.4283     Total:     0.7504

  Dipole Moment: [D]
     X:     1.0428      Y:     1.1684      Z:    -1.0886     Total:     1.9073


*** tstop() called on Vanadium at Thu Sep 26 15:07:01 2019
Module time:
	user time   =       4.79 seconds =       0.08 minutes
	system time =       0.90 seconds =       0.02 minutes
	total time  =          2 seconds =       0.03 minutes
Total time:
	user time   =      44.65 seconds =       0.74 minutes
	system time =       9.01 seconds =       0.15 minutes
	total time  =         19 seconds =       0.32 minutes

       N-Body: Complex Energy (fragments = (1, 2, 3), basis = (1, 2, 3):  -166.35249854837107)

   ==> N-Body: Counterpoise Corrected (CP) energies <==

   n-Body     Total Energy [Eh]       I.E. [kcal/mol]      Delta [kcal/mol]
        1     -166.349896077688        0.000000000000        0.000000000000
        2     -166.350863806738       -0.607259147025       -0.607259147025
        3     -166.350843551823       -0.594548995633        0.012710151392

   => Loading Basis Set <=

    Name: DEF2-SVP
    Role: ORBITAL
    Keyword: BASIS
    atoms 1, 5, 9         entry N          line   110 file /home/carlosborca/miniconda3/envs/CrystaLattE/share/psi4/basis/def2-svp.gbs 
    atoms 2-4, 6-8, 10-12 entry H          line    15 file /home/carlosborca/miniconda3/envs/CrystaLattE/share/psi4/basis/def2-svp.gbs 


    Psi4 stopped on: Thursday, 26 September 2019 03:07PM
    Psi4 wall time for execution: 0:00:19.71

*** Psi4 exiting successfully. Buy a developer a beer!
