
    -----------------------------------------------------------------------
          Psi4: An Open-Source Ab Initio Electronic Structure Package
                               Psi4 1.4a2.dev37 

                         Git: Rev {master} a6305a1 


    R. M. Parrish, L. A. Burns, D. G. A. Smith, A. C. Simmonett,
    A. E. DePrince III, E. G. Hohenstein, U. Bozkaya, A. Yu. Sokolov,
    R. Di Remigio, R. M. Richard, J. F. Gonthier, A. M. James,
    H. R. McAlexander, A. Kumar, M. Saitow, X. Wang, B. P. Pritchard,
    P. Verma, H. F. Schaefer III, K. Patkowski, R. A. King, E. F. Valeev,
    F. A. Evangelista, J. M. Turney, T. D. Crawford, and C. D. Sherrill,
    J. Chem. Theory Comput. 13(7) pp 3185--3197 (2017).
    (doi: 10.1021/acs.jctc.7b00174)


                         Additional Contributions by
    P. Kraus, H. Kruse, M. H. Lechner, M. C. Schieber, R. A. Shaw,
    A. Alenaizan, R. Galvelis, Z. L. Glick, S. Lehtola, and J. P. Misiewicz

    -----------------------------------------------------------------------


    Psi4 started on: Thursday, 26 September 2019 03:07PM

    Process ID: 1220
    Host:       Vanadium
    PSIDATADIR: /home/carlosborca/miniconda3/envs/CrystaLattE/share/psi4
    Memory:     500.0 MiB
    Threads:    4
    
  ==> Input File <==

--------------------------------------------------------------------------
# PSI4 file produced by CrystaLattE

# Psithon input for N-mer:      3mer-0+1+5
# Number of replicas:           3
# Priority index for input:     6.25510905e-07
# Minimum monomer separations:  2.588  2.588  2.588 
# COM priority index for input: 1.62271419e-08
# Minimum COM separations:      3.883  3.883  3.883 

memory 500 MB

molecule Trimer_0_1_5 {
  N           -1.68115516      -1.68115516      -1.68115516 
  H           -2.60026315      -0.14736840      -1.13434212 
  H           -1.13434212      -2.60026315      -0.14736840 
  H           -0.14736840      -1.13434212      -2.60026315 
--
  N            3.92851196       3.16646478      -0.91910799 
  H            2.39472520       3.71327782       0.00000000 
  H            4.84761994       4.70025154      -1.46592103 
  H            3.38169892       2.24735679      -2.45289475 
--
  N           -0.91910799       3.92851196      -6.52877511 
  H           -1.46592103       4.84761994      -4.99498835 
  H           -2.45289475       3.38169892      -7.44788309 
  H            0.00000000       2.39472520      -5.98196207 
units = au
no_com
no_reorient
}

set {
  e_convergence 8
  scf_type df
  mp2_type df
  cc_type df
  freeze_core true
}

energy('scf/STO-3G', bsse_type = 'cp')

--------------------------------------------------------------------------

  Memory set to 476.837 MiB by Python driver.


   ===> N-Body Interaction Abacus <===
        BSSE Treatment:                     cp
        Number of 1-body computations:     6
        Number of 2-body computations:     3
        Number of 3-body computations:     1

   ==> N-Body: Now computing 1-body complexes <==


       N-Body: Computing complex (1/6) with fragments (3,) in the basis of fragments (1, 2, 3).


*** tstart() called on Vanadium
*** at Thu Sep 26 15:07:10 2019

   => Loading Basis Set <=

    Name: STO-3G
    Role: ORBITAL
    Keyword: BASIS
    atoms 1, 5, 9         entry N          line    71 file /home/carlosborca/miniconda3/envs/CrystaLattE/share/psi4/basis/sto-3g.gbs 
    atoms 2-4, 6-8, 10-12 entry H          line    19 file /home/carlosborca/miniconda3/envs/CrystaLattE/share/psi4/basis/sto-3g.gbs 


         ---------------------------------------------------------
                                   SCF
               by Justin Turney, Rob Parrish, Andy Simmonett
                          and Daniel G. A. Smith
                              RHF Reference
                        4 Threads,    476 MiB Core
         ---------------------------------------------------------

  ==> Geometry <==

    Molecular point group: c1
    Full point group: C1

    Geometry (in Bohr), charge = 0, multiplicity = 1:

       Center              X                  Y                   Z               Mass       
    ------------   -----------------  -----------------  -----------------  -----------------
      Gh(N)          -1.681155160000    -1.681155160000    -1.681155160000    14.003074004430
      Gh(H)          -2.600263150000    -0.147368400000    -1.134342120000     1.007825032230
      Gh(H)          -1.134342120000    -2.600263150000    -0.147368400000     1.007825032230
      Gh(H)          -0.147368400000    -1.134342120000    -2.600263150000     1.007825032230
      Gh(N)           3.928511960000     3.166464780000    -0.919107990000    14.003074004430
      Gh(H)           2.394725200000     3.713277820000     0.000000000000     1.007825032230
      Gh(H)           4.847619940000     4.700251540000    -1.465921030000     1.007825032230
      Gh(H)           3.381698920000     2.247356790000    -2.452894750000     1.007825032230
         N           -0.919107990000     3.928511960000    -6.528775110000    14.003074004430
         H           -1.465921030000     4.847619940000    -4.994988350000     1.007825032230
         H           -2.452894750000     3.381698920000    -7.447883090000     1.007825032230
         H            0.000000000000     2.394725200000    -5.981962070000     1.007825032230

  Running in c1 symmetry.

  Rotational constants: A =      0.12070  B =      0.05348  C =      0.03854 [cm^-1]
  Rotational constants: A =   3618.61470  B =   1603.32588  C =   1155.53143 [MHz]
  Nuclear repulsion =   12.223291212110816

  Charge       = 0
  Multiplicity = 1
  Electrons    = 10
  Nalpha       = 5
  Nbeta        = 5

  ==> Algorithm <==

  SCF Algorithm Type is DF.
  DIIS enabled.
  MOM disabled.
  Fractional occupation disabled.
  Guess Type is SAD.
  Energy threshold   = 1.00e-08
  Density threshold  = 1.00e-06
  Integral threshold = 0.00e+00

  ==> Primary Basis <==

  Basis Set: STO-3G
    Blend: STO-3G
    Number of shells: 18
    Number of basis function: 24
    Number of Cartesian functions: 24
    Spherical Harmonics?: true
    Max angular momentum: 1

   => Loading Basis Set <=

    Name: (STO-3G AUX)
    Role: JKFIT
    Keyword: DF_BASIS_SCF
    atoms 1, 5, 9         entry N          line   263 file /home/carlosborca/miniconda3/envs/CrystaLattE/share/psi4/basis/def2-svp-jkfit.gbs 
    atoms 2-4, 6-8, 10-12 entry H          line    23 file /home/carlosborca/miniconda3/envs/CrystaLattE/share/psi4/basis/def2-svp-jkfit.gbs 

  ==> Pre-Iterations <==

   -------------------------------------------------------
    Irrep   Nso     Nmo     Nalpha   Nbeta   Ndocc  Nsocc
   -------------------------------------------------------
     A         24      24       0       0       0       0
   -------------------------------------------------------
    Total      24      24       5       5       5       0
   -------------------------------------------------------

  ==> Integral Setup <==

  DFHelper Memory: AOs need 0.003 GiB; user supplied 0.349 GiB. Using in-core AOs.

  ==> MemDFJK: Density-Fitted J/K Matrices <==

    J tasked:                   Yes
    K tasked:                   Yes
    wK tasked:                   No
    OpenMP threads:               4
    Memory [MiB]:               357
    Algorithm:                 Core
    Schwarz Cutoff:           1E-12
    Mask sparsity (%):       1.0417
    Fitting Condition:        1E-10

   => Auxiliary Basis Set <=

  Basis Set: (STO-3G AUX)
    Blend: DEF2-SVP-JKFIT
    Number of shells: 129
    Number of basis function: 393
    Number of Cartesian functions: 459
    Spherical Harmonics?: true
    Max angular momentum: 4

  Minimum eigenvalue in the overlap matrix is 2.4901277229E-01.
  Using Symmetric Orthogonalization.

  SCF Guess: Superposition of Atomic Densities via on-the-fly atomic UHF.

  ==> Iterations <==

                           Total Energy        Delta E     RMS |[F,P]|

   @DF-RHF iter SAD:   -54.58562163433339   -5.45856e+01   0.00000e+00 
   @DF-RHF iter   1:   -55.42968704584924   -8.44065e-01   6.93164e-03 DIIS
   @DF-RHF iter   2:   -55.44943348878153   -1.97464e-02   1.31493e-03 DIIS
   @DF-RHF iter   3:   -55.45002506020310   -5.91571e-04   2.71495e-04 DIIS
   @DF-RHF iter   4:   -55.45006043162574   -3.53714e-05   2.76605e-06 DIIS
   @DF-RHF iter   5:   -55.45006043793158   -6.30584e-09   7.20339e-07 DIIS
  Energy and wave function converged.


  ==> Post-Iterations <==

    Orbital Energies [Eh]
    ---------------------

    Doubly Occupied:                                                      

       1A    -15.300754     2A     -1.100224     3A     -0.584781  
       4A     -0.584749     5A     -0.351886  

    Virtual:                                                              

       6A      0.417309     7A      0.435191     8A      0.661360  
       9A      0.752795    10A      0.759392    11A      0.926558  
      12A      0.938352    13A      0.946990    14A      0.969374  
      15A      1.314842    16A      1.356540    17A      2.192137  
      18A      2.216011    19A      2.673434    20A      2.692294  
      21A      2.700795    22A      2.728335    23A     23.900907  
      24A     23.918376  

    Final Occupation by Irrep:
              A 
    DOCC [     5 ]

  @DF-RHF Final Energy:   -55.45006043793158

   => Energetics <=

    Nuclear Repulsion Energy =             12.2232912121108157
    One-Electron Energy =                 -99.5019275195825230
    Two-Electron Energy =                  31.8285758695401313
    Total Energy =                        -55.4500604379315831

Computation Completed


Properties will be evaluated at   0.000000,   0.000000,   0.000000 [a0]

Properties computed using the SCF density matrix

  Nuclear Dipole Moment: [e a0]
     X:   -10.3526      Y:    38.1236      Z:   -64.1263

  Electronic Dipole Moment: [e a0]
     X:     9.9566      Y:   -38.5173      Z:    64.5196

  Dipole Moment: [e a0]
     X:    -0.3960      Y:    -0.3936      Z:     0.3933     Total:     0.6830

  Dipole Moment: [D]
     X:    -1.0064      Y:    -1.0005      Z:     0.9998     Total:     1.7359


*** tstop() called on Vanadium at Thu Sep 26 15:07:13 2019
Module time:
	user time   =       4.56 seconds =       0.08 minutes
	system time =       0.94 seconds =       0.02 minutes
	total time  =          3 seconds =       0.05 minutes
Total time:
	user time   =       4.56 seconds =       0.08 minutes
	system time =       0.94 seconds =       0.02 minutes
	total time  =          3 seconds =       0.05 minutes

       N-Body: Complex Energy (fragments = (3,), basis = (1, 2, 3):   -55.45006043793158)

       N-Body: Computing complex (2/6) with fragments (2,) in the basis of fragments (1, 2, 3).


*** tstart() called on Vanadium
*** at Thu Sep 26 15:07:13 2019

   => Loading Basis Set <=

    Name: STO-3G
    Role: ORBITAL
    Keyword: BASIS
    atoms 1, 5, 9         entry N          line    71 file /home/carlosborca/miniconda3/envs/CrystaLattE/share/psi4/basis/sto-3g.gbs 
    atoms 2-4, 6-8, 10-12 entry H          line    19 file /home/carlosborca/miniconda3/envs/CrystaLattE/share/psi4/basis/sto-3g.gbs 


         ---------------------------------------------------------
                                   SCF
               by Justin Turney, Rob Parrish, Andy Simmonett
                          and Daniel G. A. Smith
                              RHF Reference
                        4 Threads,    476 MiB Core
         ---------------------------------------------------------

  ==> Geometry <==

    Molecular point group: c1
    Full point group: C1

    Geometry (in Bohr), charge = 0, multiplicity = 1:

       Center              X                  Y                   Z               Mass       
    ------------   -----------------  -----------------  -----------------  -----------------
      Gh(N)          -1.681155160000    -1.681155160000    -1.681155160000    14.003074004430
      Gh(H)          -2.600263150000    -0.147368400000    -1.134342120000     1.007825032230
      Gh(H)          -1.134342120000    -2.600263150000    -0.147368400000     1.007825032230
      Gh(H)          -0.147368400000    -1.134342120000    -2.600263150000     1.007825032230
         N            3.928511960000     3.166464780000    -0.919107990000    14.003074004430
         H            2.394725200000     3.713277820000     0.000000000000     1.007825032230
         H            4.847619940000     4.700251540000    -1.465921030000     1.007825032230
         H            3.381698920000     2.247356790000    -2.452894750000     1.007825032230
      Gh(N)          -0.919107990000     3.928511960000    -6.528775110000    14.003074004430
      Gh(H)          -1.465921030000     4.847619940000    -4.994988350000     1.007825032230
      Gh(H)          -2.452894750000     3.381698920000    -7.447883090000     1.007825032230
      Gh(H)           0.000000000000     2.394725200000    -5.981962070000     1.007825032230

  Running in c1 symmetry.

  Rotational constants: A =      0.12070  B =      0.05348  C =      0.03854 [cm^-1]
  Rotational constants: A =   3618.61470  B =   1603.32588  C =   1155.53143 [MHz]
  Nuclear repulsion =   12.223291200851136

  Charge       = 0
  Multiplicity = 1
  Electrons    = 10
  Nalpha       = 5
  Nbeta        = 5

  ==> Algorithm <==

  SCF Algorithm Type is DF.
  DIIS enabled.
  MOM disabled.
  Fractional occupation disabled.
  Guess Type is SAD.
  Energy threshold   = 1.00e-08
  Density threshold  = 1.00e-06
  Integral threshold = 0.00e+00

  ==> Primary Basis <==

  Basis Set: STO-3G
    Blend: STO-3G
    Number of shells: 18
    Number of basis function: 24
    Number of Cartesian functions: 24
    Spherical Harmonics?: true
    Max angular momentum: 1

   => Loading Basis Set <=

    Name: (STO-3G AUX)
    Role: JKFIT
    Keyword: DF_BASIS_SCF
    atoms 1, 5, 9         entry N          line   263 file /home/carlosborca/miniconda3/envs/CrystaLattE/share/psi4/basis/def2-svp-jkfit.gbs 
    atoms 2-4, 6-8, 10-12 entry H          line    23 file /home/carlosborca/miniconda3/envs/CrystaLattE/share/psi4/basis/def2-svp-jkfit.gbs 

  ==> Pre-Iterations <==

   -------------------------------------------------------
    Irrep   Nso     Nmo     Nalpha   Nbeta   Ndocc  Nsocc
   -------------------------------------------------------
     A         24      24       0       0       0       0
   -------------------------------------------------------
    Total      24      24       5       5       5       0
   -------------------------------------------------------

  ==> Integral Setup <==

  DFHelper Memory: AOs need 0.003 GiB; user supplied 0.349 GiB. Using in-core AOs.

  ==> MemDFJK: Density-Fitted J/K Matrices <==

    J tasked:                   Yes
    K tasked:                   Yes
    wK tasked:                   No
    OpenMP threads:               4
    Memory [MiB]:               357
    Algorithm:                 Core
    Schwarz Cutoff:           1E-12
    Mask sparsity (%):       1.0417
    Fitting Condition:        1E-10

   => Auxiliary Basis Set <=

  Basis Set: (STO-3G AUX)
    Blend: DEF2-SVP-JKFIT
    Number of shells: 129
    Number of basis function: 393
    Number of Cartesian functions: 459
    Spherical Harmonics?: true
    Max angular momentum: 4

  Minimum eigenvalue in the overlap matrix is 2.4901277229E-01.
  Using Symmetric Orthogonalization.

  SCF Guess: Superposition of Atomic Densities via on-the-fly atomic UHF.

  ==> Iterations <==

                           Total Energy        Delta E     RMS |[F,P]|

   @DF-RHF iter SAD:   -54.58562163154236   -5.45856e+01   0.00000e+00 
   @DF-RHF iter   1:   -55.42968704606933   -8.44065e-01   6.93164e-03 DIIS
   @DF-RHF iter   2:   -55.44943348899833   -1.97464e-02   1.31493e-03 DIIS
   @DF-RHF iter   3:   -55.45002506042122   -5.91571e-04   2.71495e-04 DIIS
   @DF-RHF iter   4:   -55.45006043184407   -3.53714e-05   2.76605e-06 DIIS
   @DF-RHF iter   5:   -55.45006043814991   -6.30585e-09   7.20339e-07 DIIS
  Energy and wave function converged.


  ==> Post-Iterations <==

    Orbital Energies [Eh]
    ---------------------

    Doubly Occupied:                                                      

       1A    -15.300754     2A     -1.100224     3A     -0.584781  
       4A     -0.584749     5A     -0.351886  

    Virtual:                                                              

       6A      0.417309     7A      0.435191     8A      0.661360  
       9A      0.752795    10A      0.759392    11A      0.926558  
      12A      0.938352    13A      0.946990    14A      0.969374  
      15A      1.314842    16A      1.356540    17A      2.192137  
      18A      2.216011    19A      2.673434    20A      2.692294  
      21A      2.700795    22A      2.728335    23A     23.900907  
      24A     23.918376  

    Final Occupation by Irrep:
              A 
    DOCC [     5 ]

  @DF-RHF Final Energy:   -55.45006043814991

   => Energetics <=

    Nuclear Repulsion Energy =             12.2232912008511363
    One-Electron Energy =                 -99.5019275018511280
    Two-Electron Energy =                  31.8285758628500801
    Total Energy =                        -55.4500604381499116

Computation Completed


Properties will be evaluated at   0.000000,   0.000000,   0.000000 [a0]

Properties computed using the SCF density matrix

  Nuclear Dipole Moment: [e a0]
     X:    38.1236      Y:    32.8261      Z:   -10.3526

  Electronic Dipole Moment: [e a0]
     X:   -38.5170      Y:   -32.4302      Z:     9.9589

  Dipole Moment: [e a0]
     X:    -0.3933      Y:     0.3960      Z:    -0.3936     Total:     0.6830

  Dipole Moment: [D]
     X:    -0.9998      Y:     1.0064      Z:    -1.0005     Total:     1.7359


*** tstop() called on Vanadium at Thu Sep 26 15:07:15 2019
Module time:
	user time   =       4.50 seconds =       0.07 minutes
	system time =       0.84 seconds =       0.01 minutes
	total time  =          2 seconds =       0.03 minutes
Total time:
	user time   =       9.13 seconds =       0.15 minutes
	system time =       1.78 seconds =       0.03 minutes
	total time  =          5 seconds =       0.08 minutes

       N-Body: Complex Energy (fragments = (2,), basis = (1, 2, 3):   -55.45006043814991)

       N-Body: Computing complex (3/6) with fragments (1,) in the basis of fragments (1,).


*** tstart() called on Vanadium
*** at Thu Sep 26 15:07:15 2019

   => Loading Basis Set <=

    Name: STO-3G
    Role: ORBITAL
    Keyword: BASIS
    atoms 1   entry N          line    71 file /home/carlosborca/miniconda3/envs/CrystaLattE/share/psi4/basis/sto-3g.gbs 
    atoms 2-4 entry H          line    19 file /home/carlosborca/miniconda3/envs/CrystaLattE/share/psi4/basis/sto-3g.gbs 


         ---------------------------------------------------------
                                   SCF
               by Justin Turney, Rob Parrish, Andy Simmonett
                          and Daniel G. A. Smith
                              RHF Reference
                        4 Threads,    476 MiB Core
         ---------------------------------------------------------

  ==> Geometry <==

    Molecular point group: c1
    Full point group: C1

    Geometry (in Bohr), charge = 0, multiplicity = 1:

       Center              X                  Y                   Z               Mass       
    ------------   -----------------  -----------------  -----------------  -----------------
         N           -1.681155160000    -1.681155160000    -1.681155160000    14.003074004430
         H           -2.600263150000    -0.147368400000    -1.134342120000     1.007825032230
         H           -1.134342120000    -2.600263150000    -0.147368400000     1.007825032230
         H           -0.147368400000    -1.134342120000    -2.600263150000     1.007825032230

  Running in c1 symmetry.

  Rotational constants: A =      6.53545  B =      0.43458  C =      0.43458 [cm^-1]
  Rotational constants: A = 195927.87342  B =  13028.43972  C =  13028.43972 [MHz]
  Nuclear repulsion =   12.223291189591457

  Charge       = 0
  Multiplicity = 1
  Electrons    = 10
  Nalpha       = 5
  Nbeta        = 5

  ==> Algorithm <==

  SCF Algorithm Type is DF.
  DIIS enabled.
  MOM disabled.
  Fractional occupation disabled.
  Guess Type is SAD.
  Energy threshold   = 1.00e-08
  Density threshold  = 1.00e-06
  Integral threshold = 0.00e+00

  ==> Primary Basis <==

  Basis Set: STO-3G
    Blend: STO-3G
    Number of shells: 6
    Number of basis function: 8
    Number of Cartesian functions: 8
    Spherical Harmonics?: true
    Max angular momentum: 1

   => Loading Basis Set <=

    Name: (STO-3G AUX)
    Role: JKFIT
    Keyword: DF_BASIS_SCF
    atoms 1   entry N          line   263 file /home/carlosborca/miniconda3/envs/CrystaLattE/share/psi4/basis/def2-svp-jkfit.gbs 
    atoms 2-4 entry H          line    23 file /home/carlosborca/miniconda3/envs/CrystaLattE/share/psi4/basis/def2-svp-jkfit.gbs 

  ==> Pre-Iterations <==

   -------------------------------------------------------
    Irrep   Nso     Nmo     Nalpha   Nbeta   Ndocc  Nsocc
   -------------------------------------------------------
     A          8       8       0       0       0       0
   -------------------------------------------------------
    Total       8       8       5       5       5       0
   -------------------------------------------------------

  ==> Integral Setup <==

  DFHelper Memory: AOs need 0.000 GiB; user supplied 0.349 GiB. Using in-core AOs.

  ==> MemDFJK: Density-Fitted J/K Matrices <==

    J tasked:                   Yes
    K tasked:                   Yes
    wK tasked:                   No
    OpenMP threads:               4
    Memory [MiB]:               357
    Algorithm:                 Core
    Schwarz Cutoff:           1E-12
    Mask sparsity (%):       0.0000
    Fitting Condition:        1E-10

   => Auxiliary Basis Set <=

  Basis Set: (STO-3G AUX)
    Blend: DEF2-SVP-JKFIT
    Number of shells: 43
    Number of basis function: 131
    Number of Cartesian functions: 153
    Spherical Harmonics?: true
    Max angular momentum: 4

  Minimum eigenvalue in the overlap matrix is 2.5446568092E-01.
  Using Symmetric Orthogonalization.

  SCF Guess: Superposition of Atomic Densities via on-the-fly atomic UHF.

  ==> Iterations <==

                           Total Energy        Delta E     RMS |[F,P]|

   @DF-RHF iter SAD:   -54.58562505887942   -5.45856e+01   0.00000e+00 
   @DF-RHF iter   1:   -55.42957380035036   -8.43949e-01   2.08005e-02 DIIS
   @DF-RHF iter   2:   -55.44933997592631   -1.97662e-02   3.93998e-03 DIIS
   @DF-RHF iter   3:   -55.44993006317269   -5.90087e-04   8.13904e-04 DIIS
   @DF-RHF iter   4:   -55.44996535349628   -3.52903e-05   7.59270e-06 DIIS
   @DF-RHF iter   5:   -55.44996535934590   -5.84961e-09   9.86692e-07 DIIS
  Energy and wave function converged.


  ==> Post-Iterations <==

    Orbital Energies [Eh]
    ---------------------

    Doubly Occupied:                                                      

       1A    -15.300501     2A     -1.100051     3A     -0.584614  
       4A     -0.584614     5A     -0.351735  

    Virtual:                                                              

       6A      0.663673     7A      0.759629     8A      0.759629  

    Final Occupation by Irrep:
              A 
    DOCC [     5 ]

  @DF-RHF Final Energy:   -55.44996535934590

   => Energetics <=

    Nuclear Repulsion Energy =             12.2232911895914569
    One-Electron Energy =                 -99.5034369941981822
    Two-Electron Energy =                  31.8301804452608188
    Total Energy =                        -55.4499653593458959

Computation Completed


Properties will be evaluated at   0.000000,   0.000000,   0.000000 [a0]

Properties computed using the SCF density matrix

  Nuclear Dipole Moment: [e a0]
     X:   -15.6501      Y:   -15.6501      Z:   -15.6501

  Electronic Dipole Moment: [e a0]
     X:    16.0450      Y:    16.0450      Z:    16.0450

  Dipole Moment: [e a0]
     X:     0.3949      Y:     0.3949      Z:     0.3949     Total:     0.6840

  Dipole Moment: [D]
     X:     1.0038      Y:     1.0038      Z:     1.0038     Total:     1.7386


*** tstop() called on Vanadium at Thu Sep 26 15:07:16 2019
Module time:
	user time   =       4.64 seconds =       0.08 minutes
	system time =       1.02 seconds =       0.02 minutes
	total time  =          1 seconds =       0.02 minutes
Total time:
	user time   =      13.83 seconds =       0.23 minutes
	system time =       2.86 seconds =       0.05 minutes
	total time  =          6 seconds =       0.10 minutes

       N-Body: Complex Energy (fragments = (1,), basis = (1,):   -55.44996535934590)

       N-Body: Computing complex (4/6) with fragments (3,) in the basis of fragments (3,).


*** tstart() called on Vanadium
*** at Thu Sep 26 15:07:16 2019

   => Loading Basis Set <=

    Name: STO-3G
    Role: ORBITAL
    Keyword: BASIS
    atoms 1   entry N          line    71 file /home/carlosborca/miniconda3/envs/CrystaLattE/share/psi4/basis/sto-3g.gbs 
    atoms 2-4 entry H          line    19 file /home/carlosborca/miniconda3/envs/CrystaLattE/share/psi4/basis/sto-3g.gbs 


         ---------------------------------------------------------
                                   SCF
               by Justin Turney, Rob Parrish, Andy Simmonett
                          and Daniel G. A. Smith
                              RHF Reference
                        4 Threads,    476 MiB Core
         ---------------------------------------------------------

  ==> Geometry <==

    Molecular point group: c1
    Full point group: C1

    Geometry (in Bohr), charge = 0, multiplicity = 1:

       Center              X                  Y                   Z               Mass       
    ------------   -----------------  -----------------  -----------------  -----------------
         N           -0.919107990000     3.928511960000    -6.528775110000    14.003074004430
         H           -1.465921030000     4.847619940000    -4.994988350000     1.007825032230
         H           -2.452894750000     3.381698920000    -7.447883090000     1.007825032230
         H            0.000000000000     2.394725200000    -5.981962070000     1.007825032230

  Running in c1 symmetry.

  Rotational constants: A =      8.05015  B =      0.06102  C =      0.06091 [cm^-1]
  Rotational constants: A = 241337.31312  B =   1829.35065  C =   1826.14248 [MHz]
  Nuclear repulsion =   12.223291212110816

  Charge       = 0
  Multiplicity = 1
  Electrons    = 10
  Nalpha       = 5
  Nbeta        = 5

  ==> Algorithm <==

  SCF Algorithm Type is DF.
  DIIS enabled.
  MOM disabled.
  Fractional occupation disabled.
  Guess Type is SAD.
  Energy threshold   = 1.00e-08
  Density threshold  = 1.00e-06
  Integral threshold = 0.00e+00

  ==> Primary Basis <==

  Basis Set: STO-3G
    Blend: STO-3G
    Number of shells: 6
    Number of basis function: 8
    Number of Cartesian functions: 8
    Spherical Harmonics?: true
    Max angular momentum: 1

   => Loading Basis Set <=

    Name: (STO-3G AUX)
    Role: JKFIT
    Keyword: DF_BASIS_SCF
    atoms 1   entry N          line   263 file /home/carlosborca/miniconda3/envs/CrystaLattE/share/psi4/basis/def2-svp-jkfit.gbs 
    atoms 2-4 entry H          line    23 file /home/carlosborca/miniconda3/envs/CrystaLattE/share/psi4/basis/def2-svp-jkfit.gbs 

  ==> Pre-Iterations <==

   -------------------------------------------------------
    Irrep   Nso     Nmo     Nalpha   Nbeta   Ndocc  Nsocc
   -------------------------------------------------------
     A          8       8       0       0       0       0
   -------------------------------------------------------
    Total       8       8       5       5       5       0
   -------------------------------------------------------

  ==> Integral Setup <==

  DFHelper Memory: AOs need 0.000 GiB; user supplied 0.349 GiB. Using in-core AOs.

  ==> MemDFJK: Density-Fitted J/K Matrices <==

    J tasked:                   Yes
    K tasked:                   Yes
    wK tasked:                   No
    OpenMP threads:               4
    Memory [MiB]:               357
    Algorithm:                 Core
    Schwarz Cutoff:           1E-12
    Mask sparsity (%):       0.0000
    Fitting Condition:        1E-10

   => Auxiliary Basis Set <=

  Basis Set: (STO-3G AUX)
    Blend: DEF2-SVP-JKFIT
    Number of shells: 43
    Number of basis function: 131
    Number of Cartesian functions: 153
    Spherical Harmonics?: true
    Max angular momentum: 4

  Minimum eigenvalue in the overlap matrix is 2.5446567971E-01.
  Using Symmetric Orthogonalization.

  SCF Guess: Superposition of Atomic Densities via on-the-fly atomic UHF.

  ==> Iterations <==

                           Total Energy        Delta E     RMS |[F,P]|

   @DF-RHF iter SAD:   -54.58562506451410   -5.45856e+01   0.00000e+00 
   @DF-RHF iter   1:   -55.42957379996255   -8.43949e-01   2.08005e-02 DIIS
   @DF-RHF iter   2:   -55.44933997554512   -1.97662e-02   3.93998e-03 DIIS
   @DF-RHF iter   3:   -55.44993006278860   -5.90087e-04   8.13904e-04 DIIS
   @DF-RHF iter   4:   -55.44996535311194   -3.52903e-05   7.59270e-06 DIIS
   @DF-RHF iter   5:   -55.44996535896156   -5.84962e-09   9.86692e-07 DIIS
  Energy and wave function converged.


  ==> Post-Iterations <==

    Orbital Energies [Eh]
    ---------------------

    Doubly Occupied:                                                      

       1A    -15.300501     2A     -1.100051     3A     -0.584614  
       4A     -0.584614     5A     -0.351735  

    Virtual:                                                              

       6A      0.663673     7A      0.759629     8A      0.759629  

    Final Occupation by Irrep:
              A 
    DOCC [     5 ]

  @DF-RHF Final Energy:   -55.44996535896156

   => Energetics <=

    Nuclear Repulsion Energy =             12.2232912121108157
    One-Electron Energy =                 -99.5034370296584854
    Two-Electron Energy =                  31.8301804585860992
    Total Energy =                        -55.4499653589615633

Computation Completed


Properties will be evaluated at   0.000000,   0.000000,   0.000000 [a0]

Properties computed using the SCF density matrix

  Nuclear Dipole Moment: [e a0]
     X:   -10.3526      Y:    38.1236      Z:   -64.1263

  Electronic Dipole Moment: [e a0]
     X:     9.9577      Y:   -38.5185      Z:    64.5212

  Dipole Moment: [e a0]
     X:    -0.3949      Y:    -0.3949      Z:     0.3949     Total:     0.6840

  Dipole Moment: [D]
     X:    -1.0038      Y:    -1.0038      Z:     1.0038     Total:     1.7386


*** tstop() called on Vanadium at Thu Sep 26 15:07:18 2019
Module time:
	user time   =       3.73 seconds =       0.06 minutes
	system time =       0.73 seconds =       0.01 minutes
	total time  =          2 seconds =       0.03 minutes
Total time:
	user time   =      17.59 seconds =       0.29 minutes
	system time =       3.62 seconds =       0.06 minutes
	total time  =          8 seconds =       0.13 minutes

       N-Body: Complex Energy (fragments = (3,), basis = (3,):   -55.44996535896156)

       N-Body: Computing complex (5/6) with fragments (1,) in the basis of fragments (1, 2, 3).


*** tstart() called on Vanadium
*** at Thu Sep 26 15:07:18 2019

   => Loading Basis Set <=

    Name: STO-3G
    Role: ORBITAL
    Keyword: BASIS
    atoms 1, 5, 9         entry N          line    71 file /home/carlosborca/miniconda3/envs/CrystaLattE/share/psi4/basis/sto-3g.gbs 
    atoms 2-4, 6-8, 10-12 entry H          line    19 file /home/carlosborca/miniconda3/envs/CrystaLattE/share/psi4/basis/sto-3g.gbs 


         ---------------------------------------------------------
                                   SCF
               by Justin Turney, Rob Parrish, Andy Simmonett
                          and Daniel G. A. Smith
                              RHF Reference
                        4 Threads,    476 MiB Core
         ---------------------------------------------------------

  ==> Geometry <==

    Molecular point group: c1
    Full point group: C1

    Geometry (in Bohr), charge = 0, multiplicity = 1:

       Center              X                  Y                   Z               Mass       
    ------------   -----------------  -----------------  -----------------  -----------------
         N           -1.681155160000    -1.681155160000    -1.681155160000    14.003074004430
         H           -2.600263150000    -0.147368400000    -1.134342120000     1.007825032230
         H           -1.134342120000    -2.600263150000    -0.147368400000     1.007825032230
         H           -0.147368400000    -1.134342120000    -2.600263150000     1.007825032230
      Gh(N)           3.928511960000     3.166464780000    -0.919107990000    14.003074004430
      Gh(H)           2.394725200000     3.713277820000     0.000000000000     1.007825032230
      Gh(H)           4.847619940000     4.700251540000    -1.465921030000     1.007825032230
      Gh(H)           3.381698920000     2.247356790000    -2.452894750000     1.007825032230
      Gh(N)          -0.919107990000     3.928511960000    -6.528775110000    14.003074004430
      Gh(H)          -1.465921030000     4.847619940000    -4.994988350000     1.007825032230
      Gh(H)          -2.452894750000     3.381698920000    -7.447883090000     1.007825032230
      Gh(H)           0.000000000000     2.394725200000    -5.981962070000     1.007825032230

  Running in c1 symmetry.

  Rotational constants: A =      0.12070  B =      0.05348  C =      0.03854 [cm^-1]
  Rotational constants: A =   3618.61470  B =   1603.32588  C =   1155.53143 [MHz]
  Nuclear repulsion =   12.223291189591457

  Charge       = 0
  Multiplicity = 1
  Electrons    = 10
  Nalpha       = 5
  Nbeta        = 5

  ==> Algorithm <==

  SCF Algorithm Type is DF.
  DIIS enabled.
  MOM disabled.
  Fractional occupation disabled.
  Guess Type is SAD.
  Energy threshold   = 1.00e-08
  Density threshold  = 1.00e-06
  Integral threshold = 0.00e+00

  ==> Primary Basis <==

  Basis Set: STO-3G
    Blend: STO-3G
    Number of shells: 18
    Number of basis function: 24
    Number of Cartesian functions: 24
    Spherical Harmonics?: true
    Max angular momentum: 1

   => Loading Basis Set <=

    Name: (STO-3G AUX)
    Role: JKFIT
    Keyword: DF_BASIS_SCF
    atoms 1, 5, 9         entry N          line   263 file /home/carlosborca/miniconda3/envs/CrystaLattE/share/psi4/basis/def2-svp-jkfit.gbs 
    atoms 2-4, 6-8, 10-12 entry H          line    23 file /home/carlosborca/miniconda3/envs/CrystaLattE/share/psi4/basis/def2-svp-jkfit.gbs 

  ==> Pre-Iterations <==

   -------------------------------------------------------
    Irrep   Nso     Nmo     Nalpha   Nbeta   Ndocc  Nsocc
   -------------------------------------------------------
     A         24      24       0       0       0       0
   -------------------------------------------------------
    Total      24      24       5       5       5       0
   -------------------------------------------------------

  ==> Integral Setup <==

  DFHelper Memory: AOs need 0.003 GiB; user supplied 0.349 GiB. Using in-core AOs.

  ==> MemDFJK: Density-Fitted J/K Matrices <==

    J tasked:                   Yes
    K tasked:                   Yes
    wK tasked:                   No
    OpenMP threads:               4
    Memory [MiB]:               357
    Algorithm:                 Core
    Schwarz Cutoff:           1E-12
    Mask sparsity (%):       1.0417
    Fitting Condition:        1E-10

   => Auxiliary Basis Set <=

  Basis Set: (STO-3G AUX)
    Blend: DEF2-SVP-JKFIT
    Number of shells: 129
    Number of basis function: 393
    Number of Cartesian functions: 459
    Spherical Harmonics?: true
    Max angular momentum: 4

  Minimum eigenvalue in the overlap matrix is 2.4901277229E-01.
  Using Symmetric Orthogonalization.

  SCF Guess: Superposition of Atomic Densities via on-the-fly atomic UHF.

  ==> Iterations <==

                           Total Energy        Delta E     RMS |[F,P]|

   @DF-RHF iter SAD:   -54.58562162869547   -5.45856e+01   0.00000e+00 
   @DF-RHF iter   1:   -55.42968704623363   -8.44065e-01   6.93164e-03 DIIS
   @DF-RHF iter   2:   -55.44943348915901   -1.97464e-02   1.31493e-03 DIIS
   @DF-RHF iter   3:   -55.45002506058342   -5.91571e-04   2.71495e-04 DIIS
   @DF-RHF iter   4:   -55.45006043200625   -3.53714e-05   2.76605e-06 DIIS
   @DF-RHF iter   5:   -55.45006043831219   -6.30594e-09   7.20339e-07 DIIS
  Energy and wave function converged.


  ==> Post-Iterations <==

    Orbital Energies [Eh]
    ---------------------

    Doubly Occupied:                                                      

       1A    -15.300754     2A     -1.100224     3A     -0.584781  
       4A     -0.584749     5A     -0.351886  

    Virtual:                                                              

       6A      0.417309     7A      0.435191     8A      0.661360  
       9A      0.752795    10A      0.759392    11A      0.926558  
      12A      0.938352    13A      0.946990    14A      0.969374  
      15A      1.314842    16A      1.356540    17A      2.192137  
      18A      2.216011    19A      2.673434    20A      2.692294  
      21A      2.700795    22A      2.728335    23A     23.900907  
      24A     23.918376  

    Final Occupation by Irrep:
              A 
    DOCC [     5 ]

  @DF-RHF Final Energy:   -55.45006043831219

   => Energetics <=

    Nuclear Repulsion Energy =             12.2232911895914569
    One-Electron Energy =                 -99.5019274840982604
    Two-Electron Energy =                  31.8285758561946182
    Total Energy =                        -55.4500604383121924

Computation Completed


Properties will be evaluated at   0.000000,   0.000000,   0.000000 [a0]

Properties computed using the SCF density matrix

  Nuclear Dipole Moment: [e a0]
     X:   -15.6501      Y:   -15.6501      Z:   -15.6501

  Electronic Dipole Moment: [e a0]
     X:    16.0437      Y:    16.0434      Z:    16.0460

  Dipole Moment: [e a0]
     X:     0.3936      Y:     0.3933      Z:     0.3960     Total:     0.6830

  Dipole Moment: [D]
     X:     1.0005      Y:     0.9998      Z:     1.0064     Total:     1.7359


*** tstop() called on Vanadium at Thu Sep 26 15:07:20 2019
Module time:
	user time   =       4.85 seconds =       0.08 minutes
	system time =       0.69 seconds =       0.01 minutes
	total time  =          2 seconds =       0.03 minutes
Total time:
	user time   =      22.52 seconds =       0.38 minutes
	system time =       4.36 seconds =       0.07 minutes
	total time  =         10 seconds =       0.17 minutes

       N-Body: Complex Energy (fragments = (1,), basis = (1, 2, 3):   -55.45006043831219)

       N-Body: Computing complex (6/6) with fragments (2,) in the basis of fragments (2,).


*** tstart() called on Vanadium
*** at Thu Sep 26 15:07:20 2019

   => Loading Basis Set <=

    Name: STO-3G
    Role: ORBITAL
    Keyword: BASIS
    atoms 1   entry N          line    71 file /home/carlosborca/miniconda3/envs/CrystaLattE/share/psi4/basis/sto-3g.gbs 
    atoms 2-4 entry H          line    19 file /home/carlosborca/miniconda3/envs/CrystaLattE/share/psi4/basis/sto-3g.gbs 


         ---------------------------------------------------------
                                   SCF
               by Justin Turney, Rob Parrish, Andy Simmonett
                          and Daniel G. A. Smith
                              RHF Reference
                        4 Threads,    476 MiB Core
         ---------------------------------------------------------

  ==> Geometry <==

    Molecular point group: c1
    Full point group: C1

    Geometry (in Bohr), charge = 0, multiplicity = 1:

       Center              X                  Y                   Z               Mass       
    ------------   -----------------  -----------------  -----------------  -----------------
         N            3.928511960000     3.166464780000    -0.919107990000    14.003074004430
         H            2.394725200000     3.713277820000     0.000000000000     1.007825032230
         H            4.847619940000     4.700251540000    -1.465921030000     1.007825032230
         H            3.381698920000     2.247356790000    -2.452894750000     1.007825032230

  Running in c1 symmetry.

  Rotational constants: A =     10.50680  B =      0.13254  C =      0.13153 [cm^-1]
  Rotational constants: A = 314985.91418  B =   3973.38736  C =   3943.16163 [MHz]
  Nuclear repulsion =   12.223291200851136

  Charge       = 0
  Multiplicity = 1
  Electrons    = 10
  Nalpha       = 5
  Nbeta        = 5

  ==> Algorithm <==

  SCF Algorithm Type is DF.
  DIIS enabled.
  MOM disabled.
  Fractional occupation disabled.
  Guess Type is SAD.
  Energy threshold   = 1.00e-08
  Density threshold  = 1.00e-06
  Integral threshold = 0.00e+00

  ==> Primary Basis <==

  Basis Set: STO-3G
    Blend: STO-3G
    Number of shells: 6
    Number of basis function: 8
    Number of Cartesian functions: 8
    Spherical Harmonics?: true
    Max angular momentum: 1

   => Loading Basis Set <=

    Name: (STO-3G AUX)
    Role: JKFIT
    Keyword: DF_BASIS_SCF
    atoms 1   entry N          line   263 file /home/carlosborca/miniconda3/envs/CrystaLattE/share/psi4/basis/def2-svp-jkfit.gbs 
    atoms 2-4 entry H          line    23 file /home/carlosborca/miniconda3/envs/CrystaLattE/share/psi4/basis/def2-svp-jkfit.gbs 

  ==> Pre-Iterations <==

   -------------------------------------------------------
    Irrep   Nso     Nmo     Nalpha   Nbeta   Ndocc  Nsocc
   -------------------------------------------------------
     A          8       8       0       0       0       0
   -------------------------------------------------------
    Total       8       8       5       5       5       0
   -------------------------------------------------------

  ==> Integral Setup <==

  DFHelper Memory: AOs need 0.000 GiB; user supplied 0.349 GiB. Using in-core AOs.

  ==> MemDFJK: Density-Fitted J/K Matrices <==

    J tasked:                   Yes
    K tasked:                   Yes
    wK tasked:                   No
    OpenMP threads:               4
    Memory [MiB]:               357
    Algorithm:                 Core
    Schwarz Cutoff:           1E-12
    Mask sparsity (%):       0.0000
    Fitting Condition:        1E-10

   => Auxiliary Basis Set <=

  Basis Set: (STO-3G AUX)
    Blend: DEF2-SVP-JKFIT
    Number of shells: 43
    Number of basis function: 131
    Number of Cartesian functions: 153
    Spherical Harmonics?: true
    Max angular momentum: 4

  Minimum eigenvalue in the overlap matrix is 2.5446568031E-01.
  Using Symmetric Orthogonalization.

  SCF Guess: Superposition of Atomic Densities via on-the-fly atomic UHF.

  ==> Iterations <==

                           Total Energy        Delta E     RMS |[F,P]|

   @DF-RHF iter SAD:   -54.58562506171481   -5.45856e+01   0.00000e+00 
   @DF-RHF iter   1:   -55.42957380017457   -8.43949e-01   2.08005e-02 DIIS
   @DF-RHF iter   2:   -55.44933997575379   -1.97662e-02   3.93998e-03 DIIS
   @DF-RHF iter   3:   -55.44993006299881   -5.90087e-04   8.13904e-04 DIIS
   @DF-RHF iter   4:   -55.44996535332228   -3.52903e-05   7.59270e-06 DIIS
   @DF-RHF iter   5:   -55.44996535917188   -5.84961e-09   9.86692e-07 DIIS
  Energy and wave function converged.


  ==> Post-Iterations <==

    Orbital Energies [Eh]
    ---------------------

    Doubly Occupied:                                                      

       1A    -15.300501     2A     -1.100051     3A     -0.584614  
       4A     -0.584614     5A     -0.351735  

    Virtual:                                                              

       6A      0.663673     7A      0.759629     8A      0.759629  

    Final Occupation by Irrep:
              A 
    DOCC [     5 ]

  @DF-RHF Final Energy:   -55.44996535917188

   => Energetics <=

    Nuclear Repulsion Energy =             12.2232912008511363
    One-Electron Energy =                 -99.5034370119357732
    Two-Electron Energy =                  31.8301804519127494
    Total Energy =                        -55.4499653591718840

Computation Completed


Properties will be evaluated at   0.000000,   0.000000,   0.000000 [a0]

Properties computed using the SCF density matrix

  Nuclear Dipole Moment: [e a0]
     X:    38.1236      Y:    32.8261      Z:   -10.3526

  Electronic Dipole Moment: [e a0]
     X:   -38.5185      Y:   -32.4312      Z:     9.9577

  Dipole Moment: [e a0]
     X:    -0.3949      Y:     0.3949      Z:    -0.3949     Total:     0.6840

  Dipole Moment: [D]
     X:    -1.0038      Y:     1.0038      Z:    -1.0038     Total:     1.7386


*** tstop() called on Vanadium at Thu Sep 26 15:07:21 2019
Module time:
	user time   =       3.66 seconds =       0.06 minutes
	system time =       0.88 seconds =       0.01 minutes
	total time  =          1 seconds =       0.02 minutes
Total time:
	user time   =      26.22 seconds =       0.44 minutes
	system time =       5.25 seconds =       0.09 minutes
	total time  =         11 seconds =       0.18 minutes

       N-Body: Complex Energy (fragments = (2,), basis = (2,):   -55.44996535917188)

   ==> N-Body: Now computing 2-body complexes <==


       N-Body: Computing complex (1/3) with fragments (1, 3) in the basis of fragments (1, 2, 3).


*** tstart() called on Vanadium
*** at Thu Sep 26 15:07:21 2019

   => Loading Basis Set <=

    Name: STO-3G
    Role: ORBITAL
    Keyword: BASIS
    atoms 1, 5, 9         entry N          line    71 file /home/carlosborca/miniconda3/envs/CrystaLattE/share/psi4/basis/sto-3g.gbs 
    atoms 2-4, 6-8, 10-12 entry H          line    19 file /home/carlosborca/miniconda3/envs/CrystaLattE/share/psi4/basis/sto-3g.gbs 


         ---------------------------------------------------------
                                   SCF
               by Justin Turney, Rob Parrish, Andy Simmonett
                          and Daniel G. A. Smith
                              RHF Reference
                        4 Threads,    476 MiB Core
         ---------------------------------------------------------

  ==> Geometry <==

    Molecular point group: c1
    Full point group: C1

    Geometry (in Bohr), charge = 0, multiplicity = 1:

       Center              X                  Y                   Z               Mass       
    ------------   -----------------  -----------------  -----------------  -----------------
         N           -1.681155160000    -1.681155160000    -1.681155160000    14.003074004430
         H           -2.600263150000    -0.147368400000    -1.134342120000     1.007825032230
         H           -1.134342120000    -2.600263150000    -0.147368400000     1.007825032230
         H           -0.147368400000    -1.134342120000    -2.600263150000     1.007825032230
      Gh(N)           3.928511960000     3.166464780000    -0.919107990000    14.003074004430
      Gh(H)           2.394725200000     3.713277820000     0.000000000000     1.007825032230
      Gh(H)           4.847619940000     4.700251540000    -1.465921030000     1.007825032230
      Gh(H)           3.381698920000     2.247356790000    -2.452894750000     1.007825032230
         N           -0.919107990000     3.928511960000    -6.528775110000    14.003074004430
         H           -1.465921030000     4.847619940000    -4.994988350000     1.007825032230
         H           -2.452894750000     3.381698920000    -7.447883090000     1.007825032230
         H            0.000000000000     2.394725200000    -5.981962070000     1.007825032230

  Running in c1 symmetry.

  Rotational constants: A =      0.12070  B =      0.05348  C =      0.03854 [cm^-1]
  Rotational constants: A =   3618.61470  B =   1603.32588  C =   1155.53143 [MHz]
  Nuclear repulsion =   38.181027421611248

  Charge       = 0
  Multiplicity = 1
  Electrons    = 20
  Nalpha       = 10
  Nbeta        = 10

  ==> Algorithm <==

  SCF Algorithm Type is DF.
  DIIS enabled.
  MOM disabled.
  Fractional occupation disabled.
  Guess Type is SAD.
  Energy threshold   = 1.00e-08
  Density threshold  = 1.00e-06
  Integral threshold = 0.00e+00

  ==> Primary Basis <==

  Basis Set: STO-3G
    Blend: STO-3G
    Number of shells: 18
    Number of basis function: 24
    Number of Cartesian functions: 24
    Spherical Harmonics?: true
    Max angular momentum: 1

   => Loading Basis Set <=

    Name: (STO-3G AUX)
    Role: JKFIT
    Keyword: DF_BASIS_SCF
    atoms 1, 5, 9         entry N          line   263 file /home/carlosborca/miniconda3/envs/CrystaLattE/share/psi4/basis/def2-svp-jkfit.gbs 
    atoms 2-4, 6-8, 10-12 entry H          line    23 file /home/carlosborca/miniconda3/envs/CrystaLattE/share/psi4/basis/def2-svp-jkfit.gbs 

  ==> Pre-Iterations <==

   -------------------------------------------------------
    Irrep   Nso     Nmo     Nalpha   Nbeta   Ndocc  Nsocc
   -------------------------------------------------------
     A         24      24       0       0       0       0
   -------------------------------------------------------
    Total      24      24      10      10      10       0
   -------------------------------------------------------

  ==> Integral Setup <==

  DFHelper Memory: AOs need 0.003 GiB; user supplied 0.349 GiB. Using in-core AOs.

  ==> MemDFJK: Density-Fitted J/K Matrices <==

    J tasked:                   Yes
    K tasked:                   Yes
    wK tasked:                   No
    OpenMP threads:               4
    Memory [MiB]:               357
    Algorithm:                 Core
    Schwarz Cutoff:           1E-12
    Mask sparsity (%):       1.0417
    Fitting Condition:        1E-10

   => Auxiliary Basis Set <=

  Basis Set: (STO-3G AUX)
    Blend: DEF2-SVP-JKFIT
    Number of shells: 129
    Number of basis function: 393
    Number of Cartesian functions: 459
    Spherical Harmonics?: true
    Max angular momentum: 4

  Minimum eigenvalue in the overlap matrix is 2.4901277229E-01.
  Using Symmetric Orthogonalization.

  SCF Guess: Superposition of Atomic Densities via on-the-fly atomic UHF.

  ==> Iterations <==

                           Total Energy        Delta E     RMS |[F,P]|

   @DF-RHF iter SAD:  -109.17187186714581   -1.09172e+02   0.00000e+00 
   @DF-RHF iter   1:  -110.85879937628133   -1.68693e+00   9.82548e-03 DIIS
   @DF-RHF iter   2:  -110.89843100880358   -3.96316e-02   1.86500e-03 DIIS
   @DF-RHF iter   3:  -110.89961984953622   -1.18884e-03   3.84677e-04 DIIS
   @DF-RHF iter   4:  -110.89969085690890   -7.10074e-05   4.26046e-06 DIIS
   @DF-RHF iter   5:  -110.89969087147169   -1.45628e-08   9.65535e-07 DIIS
   @DF-RHF iter   6:  -110.89969087227560   -8.03908e-10   1.07311e-07 DIIS
  Energy and wave function converged.


  ==> Post-Iterations <==

    Orbital Energies [Eh]
    ---------------------

    Doubly Occupied:                                                      

       1A    -15.309622     2A    -15.302862     3A     -1.109276  
       4A     -1.102127     5A     -0.596321     6A     -0.593624  
       7A     -0.586664     8A     -0.584664     9A     -0.360623  
      10A     -0.353730  

    Virtual:                                                              

      11A      0.420108    12A      0.629606    13A      0.679252  
      14A      0.729999    15A      0.750365    16A      0.758686  
      17A      0.784039    18A      0.936671    19A      0.946929  
      20A      1.330787    21A      2.199018    22A      2.691164  
      23A      2.694774    24A     23.904327  

    Final Occupation by Irrep:
              A 
    DOCC [    10 ]

  @DF-RHF Final Energy:  -110.89969087227560

   => Energetics <=

    Nuclear Repulsion Energy =             38.1810274216112475
    One-Electron Energy =                -226.3624091452786047
    Two-Electron Energy =                  77.2816908513917582
    Total Energy =                       -110.8996908722755990

Computation Completed


Properties will be evaluated at   0.000000,   0.000000,   0.000000 [a0]

Properties computed using the SCF density matrix

  Nuclear Dipole Moment: [e a0]
     X:   -26.0026      Y:    22.4736      Z:   -79.7763

  Electronic Dipole Moment: [e a0]
     X:    25.9946      Y:   -22.4809      Z:    80.5654

  Dipole Moment: [e a0]
     X:    -0.0080      Y:    -0.0073      Z:     0.7891     Total:     0.7892

  Dipole Moment: [D]
     X:    -0.0204      Y:    -0.0186      Z:     2.0057     Total:     2.0059


*** tstop() called on Vanadium at Thu Sep 26 15:07:23 2019
Module time:
	user time   =       4.81 seconds =       0.08 minutes
	system time =       0.98 seconds =       0.02 minutes
	total time  =          2 seconds =       0.03 minutes
Total time:
	user time   =      31.08 seconds =       0.52 minutes
	system time =       6.25 seconds =       0.10 minutes
	total time  =         13 seconds =       0.22 minutes

       N-Body: Complex Energy (fragments = (1, 3), basis = (1, 2, 3):  -110.89969087227560)

       N-Body: Computing complex (2/3) with fragments (2, 3) in the basis of fragments (1, 2, 3).


*** tstart() called on Vanadium
*** at Thu Sep 26 15:07:23 2019

   => Loading Basis Set <=

    Name: STO-3G
    Role: ORBITAL
    Keyword: BASIS
    atoms 1, 5, 9         entry N          line    71 file /home/carlosborca/miniconda3/envs/CrystaLattE/share/psi4/basis/sto-3g.gbs 
    atoms 2-4, 6-8, 10-12 entry H          line    19 file /home/carlosborca/miniconda3/envs/CrystaLattE/share/psi4/basis/sto-3g.gbs 


         ---------------------------------------------------------
                                   SCF
               by Justin Turney, Rob Parrish, Andy Simmonett
                          and Daniel G. A. Smith
                              RHF Reference
                        4 Threads,    476 MiB Core
         ---------------------------------------------------------

  ==> Geometry <==

    Molecular point group: c1
    Full point group: C1

    Geometry (in Bohr), charge = 0, multiplicity = 1:

       Center              X                  Y                   Z               Mass       
    ------------   -----------------  -----------------  -----------------  -----------------
      Gh(N)          -1.681155160000    -1.681155160000    -1.681155160000    14.003074004430
      Gh(H)          -2.600263150000    -0.147368400000    -1.134342120000     1.007825032230
      Gh(H)          -1.134342120000    -2.600263150000    -0.147368400000     1.007825032230
      Gh(H)          -0.147368400000    -1.134342120000    -2.600263150000     1.007825032230
         N            3.928511960000     3.166464780000    -0.919107990000    14.003074004430
         H            2.394725200000     3.713277820000     0.000000000000     1.007825032230
         H            4.847619940000     4.700251540000    -1.465921030000     1.007825032230
         H            3.381698920000     2.247356790000    -2.452894750000     1.007825032230
         N           -0.919107990000     3.928511960000    -6.528775110000    14.003074004430
         H           -1.465921030000     4.847619940000    -4.994988350000     1.007825032230
         H           -2.452894750000     3.381698920000    -7.447883090000     1.007825032230
         H            0.000000000000     2.394725200000    -5.981962070000     1.007825032230

  Running in c1 symmetry.

  Rotational constants: A =      0.12070  B =      0.05348  C =      0.03854 [cm^-1]
  Rotational constants: A =   3618.61470  B =   1603.32588  C =   1155.53143 [MHz]
  Nuclear repulsion =   38.181027431035631

  Charge       = 0
  Multiplicity = 1
  Electrons    = 20
  Nalpha       = 10
  Nbeta        = 10

  ==> Algorithm <==

  SCF Algorithm Type is DF.
  DIIS enabled.
  MOM disabled.
  Fractional occupation disabled.
  Guess Type is SAD.
  Energy threshold   = 1.00e-08
  Density threshold  = 1.00e-06
  Integral threshold = 0.00e+00

  ==> Primary Basis <==

  Basis Set: STO-3G
    Blend: STO-3G
    Number of shells: 18
    Number of basis function: 24
    Number of Cartesian functions: 24
    Spherical Harmonics?: true
    Max angular momentum: 1

   => Loading Basis Set <=

    Name: (STO-3G AUX)
    Role: JKFIT
    Keyword: DF_BASIS_SCF
    atoms 1, 5, 9         entry N          line   263 file /home/carlosborca/miniconda3/envs/CrystaLattE/share/psi4/basis/def2-svp-jkfit.gbs 
    atoms 2-4, 6-8, 10-12 entry H          line    23 file /home/carlosborca/miniconda3/envs/CrystaLattE/share/psi4/basis/def2-svp-jkfit.gbs 

  ==> Pre-Iterations <==

   -------------------------------------------------------
    Irrep   Nso     Nmo     Nalpha   Nbeta   Ndocc  Nsocc
   -------------------------------------------------------
     A         24      24       0       0       0       0
   -------------------------------------------------------
    Total      24      24      10      10      10       0
   -------------------------------------------------------

  ==> Integral Setup <==

  DFHelper Memory: AOs need 0.003 GiB; user supplied 0.349 GiB. Using in-core AOs.

  ==> MemDFJK: Density-Fitted J/K Matrices <==

    J tasked:                   Yes
    K tasked:                   Yes
    wK tasked:                   No
    OpenMP threads:               4
    Memory [MiB]:               357
    Algorithm:                 Core
    Schwarz Cutoff:           1E-12
    Mask sparsity (%):       1.0417
    Fitting Condition:        1E-10

   => Auxiliary Basis Set <=

  Basis Set: (STO-3G AUX)
    Blend: DEF2-SVP-JKFIT
    Number of shells: 129
    Number of basis function: 393
    Number of Cartesian functions: 459
    Spherical Harmonics?: true
    Max angular momentum: 4

  Minimum eigenvalue in the overlap matrix is 2.4901277229E-01.
  Using Symmetric Orthogonalization.

  SCF Guess: Superposition of Atomic Densities via on-the-fly atomic UHF.

  ==> Iterations <==

                           Total Energy        Delta E     RMS |[F,P]|

   @DF-RHF iter SAD:  -109.17187186999891   -1.09172e+02   0.00000e+00 
   @DF-RHF iter   1:  -110.85879937611743   -1.68693e+00   9.82548e-03 DIIS
   @DF-RHF iter   2:  -110.89843100864806   -3.96316e-02   1.86500e-03 DIIS
   @DF-RHF iter   3:  -110.89961984937949   -1.18884e-03   3.84677e-04 DIIS
   @DF-RHF iter   4:  -110.89969085675204   -7.10074e-05   4.26046e-06 DIIS
   @DF-RHF iter   5:  -110.89969087131468   -1.45626e-08   9.65535e-07 DIIS
   @DF-RHF iter   6:  -110.89969087211868   -8.04008e-10   1.07311e-07 DIIS
  Energy and wave function converged.


  ==> Post-Iterations <==

    Orbital Energies [Eh]
    ---------------------

    Doubly Occupied:                                                      

       1A    -15.309622     2A    -15.302862     3A     -1.109276  
       4A     -1.102127     5A     -0.596321     6A     -0.593624  
       7A     -0.586664     8A     -0.584664     9A     -0.360623  
      10A     -0.353730  

    Virtual:                                                              

      11A      0.420108    12A      0.629606    13A      0.679252  
      14A      0.729999    15A      0.750365    16A      0.758686  
      17A      0.784039    18A      0.936671    19A      0.946929  
      20A      1.330787    21A      2.199018    22A      2.691164  
      23A      2.694774    24A     23.904327  

    Final Occupation by Irrep:
              A 
    DOCC [    10 ]

  @DF-RHF Final Energy:  -110.89969087211868

   => Energetics <=

    Nuclear Repulsion Energy =             38.1810274310356306
    One-Electron Energy =                -226.3624091593720777
    Two-Electron Energy =                  77.2816908562177645
    Total Energy =                       -110.8996908721186827

Computation Completed


Properties will be evaluated at   0.000000,   0.000000,   0.000000 [a0]

Properties computed using the SCF density matrix

  Nuclear Dipole Moment: [e a0]
     X:    27.7711      Y:    70.9498      Z:   -74.4788

  Electronic Dipole Moment: [e a0]
     X:   -28.5602      Y:   -70.9417      Z:    74.4715

  Dipole Moment: [e a0]
     X:    -0.7891      Y:     0.0080      Z:    -0.0073     Total:     0.7892

  Dipole Moment: [D]
     X:    -2.0057      Y:     0.0204      Z:    -0.0186     Total:     2.0059


*** tstop() called on Vanadium at Thu Sep 26 15:07:26 2019
Module time:
	user time   =       4.74 seconds =       0.08 minutes
	system time =       0.84 seconds =       0.01 minutes
	total time  =          3 seconds =       0.05 minutes
Total time:
	user time   =      35.94 seconds =       0.60 minutes
	system time =       7.09 seconds =       0.12 minutes
	total time  =         16 seconds =       0.27 minutes

       N-Body: Complex Energy (fragments = (2, 3), basis = (1, 2, 3):  -110.89969087211868)

       N-Body: Computing complex (3/3) with fragments (1, 2) in the basis of fragments (1, 2, 3).


*** tstart() called on Vanadium
*** at Thu Sep 26 15:07:26 2019

   => Loading Basis Set <=

    Name: STO-3G
    Role: ORBITAL
    Keyword: BASIS
    atoms 1, 5, 9         entry N          line    71 file /home/carlosborca/miniconda3/envs/CrystaLattE/share/psi4/basis/sto-3g.gbs 
    atoms 2-4, 6-8, 10-12 entry H          line    19 file /home/carlosborca/miniconda3/envs/CrystaLattE/share/psi4/basis/sto-3g.gbs 


         ---------------------------------------------------------
                                   SCF
               by Justin Turney, Rob Parrish, Andy Simmonett
                          and Daniel G. A. Smith
                              RHF Reference
                        4 Threads,    476 MiB Core
         ---------------------------------------------------------

  ==> Geometry <==

    Molecular point group: c1
    Full point group: C1

    Geometry (in Bohr), charge = 0, multiplicity = 1:

       Center              X                  Y                   Z               Mass       
    ------------   -----------------  -----------------  -----------------  -----------------
         N           -1.681155160000    -1.681155160000    -1.681155160000    14.003074004430
         H           -2.600263150000    -0.147368400000    -1.134342120000     1.007825032230
         H           -1.134342120000    -2.600263150000    -0.147368400000     1.007825032230
         H           -0.147368400000    -1.134342120000    -2.600263150000     1.007825032230
         N            3.928511960000     3.166464780000    -0.919107990000    14.003074004430
         H            2.394725200000     3.713277820000     0.000000000000     1.007825032230
         H            4.847619940000     4.700251540000    -1.465921030000     1.007825032230
         H            3.381698920000     2.247356790000    -2.452894750000     1.007825032230
      Gh(N)          -0.919107990000     3.928511960000    -6.528775110000    14.003074004430
      Gh(H)          -1.465921030000     4.847619940000    -4.994988350000     1.007825032230
      Gh(H)          -2.452894750000     3.381698920000    -7.447883090000     1.007825032230
      Gh(H)           0.000000000000     2.394725200000    -5.981962070000     1.007825032230

  Running in c1 symmetry.

  Rotational constants: A =      0.12070  B =      0.05348  C =      0.03854 [cm^-1]
  Rotational constants: A =   3618.61470  B =   1603.32588  C =   1155.53143 [MHz]
  Nuclear repulsion =   38.181027420838156

  Charge       = 0
  Multiplicity = 1
  Electrons    = 20
  Nalpha       = 10
  Nbeta        = 10

  ==> Algorithm <==

  SCF Algorithm Type is DF.
  DIIS enabled.
  MOM disabled.
  Fractional occupation disabled.
  Guess Type is SAD.
  Energy threshold   = 1.00e-08
  Density threshold  = 1.00e-06
  Integral threshold = 0.00e+00

  ==> Primary Basis <==

  Basis Set: STO-3G
    Blend: STO-3G
    Number of shells: 18
    Number of basis function: 24
    Number of Cartesian functions: 24
    Spherical Harmonics?: true
    Max angular momentum: 1

   => Loading Basis Set <=

    Name: (STO-3G AUX)
    Role: JKFIT
    Keyword: DF_BASIS_SCF
    atoms 1, 5, 9         entry N          line   263 file /home/carlosborca/miniconda3/envs/CrystaLattE/share/psi4/basis/def2-svp-jkfit.gbs 
    atoms 2-4, 6-8, 10-12 entry H          line    23 file /home/carlosborca/miniconda3/envs/CrystaLattE/share/psi4/basis/def2-svp-jkfit.gbs 

  ==> Pre-Iterations <==

   -------------------------------------------------------
    Irrep   Nso     Nmo     Nalpha   Nbeta   Ndocc  Nsocc
   -------------------------------------------------------
     A         24      24       0       0       0       0
   -------------------------------------------------------
    Total      24      24      10      10      10       0
   -------------------------------------------------------

  ==> Integral Setup <==

  DFHelper Memory: AOs need 0.003 GiB; user supplied 0.349 GiB. Using in-core AOs.

  ==> MemDFJK: Density-Fitted J/K Matrices <==

    J tasked:                   Yes
    K tasked:                   Yes
    wK tasked:                   No
    OpenMP threads:               4
    Memory [MiB]:               357
    Algorithm:                 Core
    Schwarz Cutoff:           1E-12
    Mask sparsity (%):       1.0417
    Fitting Condition:        1E-10

   => Auxiliary Basis Set <=

  Basis Set: (STO-3G AUX)
    Blend: DEF2-SVP-JKFIT
    Number of shells: 129
    Number of basis function: 393
    Number of Cartesian functions: 459
    Spherical Harmonics?: true
    Max angular momentum: 4

  Minimum eigenvalue in the overlap matrix is 2.4901277229E-01.
  Using Symmetric Orthogonalization.

  SCF Guess: Superposition of Atomic Densities via on-the-fly atomic UHF.

  ==> Iterations <==

                           Total Energy        Delta E     RMS |[F,P]|

   @DF-RHF iter SAD:  -109.17187186437269   -1.09172e+02   0.00000e+00 
   @DF-RHF iter   1:  -110.85879937650260   -1.68693e+00   9.82548e-03 DIIS
   @DF-RHF iter   2:  -110.89843100902382   -3.96316e-02   1.86500e-03 DIIS
   @DF-RHF iter   3:  -110.89961984975791   -1.18884e-03   3.84677e-04 DIIS
   @DF-RHF iter   4:  -110.89969085713093   -7.10074e-05   4.26046e-06 DIIS
   @DF-RHF iter   5:  -110.89969087169361   -1.45627e-08   9.65535e-07 DIIS
   @DF-RHF iter   6:  -110.89969087249754   -8.03936e-10   1.07311e-07 DIIS
  Energy and wave function converged.


  ==> Post-Iterations <==

    Orbital Energies [Eh]
    ---------------------

    Doubly Occupied:                                                      

       1A    -15.309622     2A    -15.302862     3A     -1.109276  
       4A     -1.102127     5A     -0.596321     6A     -0.593624  
       7A     -0.586664     8A     -0.584664     9A     -0.360623  
      10A     -0.353730  

    Virtual:                                                              

      11A      0.420108    12A      0.629606    13A      0.679252  
      14A      0.729999    15A      0.750365    16A      0.758686  
      17A      0.784039    18A      0.936671    19A      0.946929  
      20A      1.330787    21A      2.199018    22A      2.691164  
      23A      2.694774    24A     23.904327  

    Final Occupation by Irrep:
              A 
    DOCC [    10 ]

  @DF-RHF Final Energy:  -110.89969087249754

   => Energetics <=

    Nuclear Repulsion Energy =             38.1810274208381557
    One-Electron Energy =                -226.3624091488815111
    Two-Electron Energy =                  77.2816908555458184
    Total Energy =                       -110.8996908724975441

Computation Completed


Properties will be evaluated at   0.000000,   0.000000,   0.000000 [a0]

Properties computed using the SCF density matrix

  Nuclear Dipole Moment: [e a0]
     X:    22.4736      Y:    17.1761      Z:   -26.0026

  Electronic Dipole Moment: [e a0]
     X:   -22.4663      Y:   -16.3870      Z:    26.0107

  Dipole Moment: [e a0]
     X:     0.0073      Y:     0.7891      Z:     0.0080     Total:     0.7892

  Dipole Moment: [D]
     X:     0.0186      Y:     2.0057      Z:     0.0204     Total:     2.0059


*** tstop() called on Vanadium at Thu Sep 26 15:07:28 2019
Module time:
	user time   =       4.76 seconds =       0.08 minutes
	system time =       0.86 seconds =       0.01 minutes
	total time  =          2 seconds =       0.03 minutes
Total time:
	user time   =      40.73 seconds =       0.68 minutes
	system time =       7.98 seconds =       0.13 minutes
	total time  =         18 seconds =       0.30 minutes

       N-Body: Complex Energy (fragments = (1, 2), basis = (1, 2, 3):  -110.89969087249754)

   ==> N-Body: Now computing 3-body complexes <==


       N-Body: Computing complex (1/1) with fragments (1, 2, 3) in the basis of fragments (1, 2, 3).


*** tstart() called on Vanadium
*** at Thu Sep 26 15:07:28 2019

   => Loading Basis Set <=

    Name: STO-3G
    Role: ORBITAL
    Keyword: BASIS
    atoms 1, 5, 9         entry N          line    71 file /home/carlosborca/miniconda3/envs/CrystaLattE/share/psi4/basis/sto-3g.gbs 
    atoms 2-4, 6-8, 10-12 entry H          line    19 file /home/carlosborca/miniconda3/envs/CrystaLattE/share/psi4/basis/sto-3g.gbs 


         ---------------------------------------------------------
                                   SCF
               by Justin Turney, Rob Parrish, Andy Simmonett
                          and Daniel G. A. Smith
                              RHF Reference
                        4 Threads,    476 MiB Core
         ---------------------------------------------------------

  ==> Geometry <==

    Molecular point group: c1
    Full point group: C1

    Geometry (in Bohr), charge = 0, multiplicity = 1:

       Center              X                  Y                   Z               Mass       
    ------------   -----------------  -----------------  -----------------  -----------------
         N           -1.681155160000    -1.681155160000    -1.681155160000    14.003074004430
         H           -2.600263150000    -0.147368400000    -1.134342120000     1.007825032230
         H           -1.134342120000    -2.600263150000    -0.147368400000     1.007825032230
         H           -0.147368400000    -1.134342120000    -2.600263150000     1.007825032230
         N            3.928511960000     3.166464780000    -0.919107990000    14.003074004430
         H            2.394725200000     3.713277820000     0.000000000000     1.007825032230
         H            4.847619940000     4.700251540000    -1.465921030000     1.007825032230
         H            3.381698920000     2.247356790000    -2.452894750000     1.007825032230
         N           -0.919107990000     3.928511960000    -6.528775110000    14.003074004430
         H           -1.465921030000     4.847619940000    -4.994988350000     1.007825032230
         H           -2.452894750000     3.381698920000    -7.447883090000     1.007825032230
         H            0.000000000000     2.394725200000    -5.981962070000     1.007825032230

  Running in c1 symmetry.

  Rotational constants: A =      0.12070  B =      0.05348  C =      0.03854 [cm^-1]
  Rotational constants: A =   3618.61470  B =   1603.32588  C =   1155.53143 [MHz]
  Nuclear repulsion =   77.873208670931604

  Charge       = 0
  Multiplicity = 1
  Electrons    = 30
  Nalpha       = 15
  Nbeta        = 15

  ==> Algorithm <==

  SCF Algorithm Type is DF.
  DIIS enabled.
  MOM disabled.
  Fractional occupation disabled.
  Guess Type is SAD.
  Energy threshold   = 1.00e-08
  Density threshold  = 1.00e-06
  Integral threshold = 0.00e+00

  ==> Primary Basis <==

  Basis Set: STO-3G
    Blend: STO-3G
    Number of shells: 18
    Number of basis function: 24
    Number of Cartesian functions: 24
    Spherical Harmonics?: true
    Max angular momentum: 1

   => Loading Basis Set <=

    Name: (STO-3G AUX)
    Role: JKFIT
    Keyword: DF_BASIS_SCF
    atoms 1, 5, 9         entry N          line   263 file /home/carlosborca/miniconda3/envs/CrystaLattE/share/psi4/basis/def2-svp-jkfit.gbs 
    atoms 2-4, 6-8, 10-12 entry H          line    23 file /home/carlosborca/miniconda3/envs/CrystaLattE/share/psi4/basis/def2-svp-jkfit.gbs 

  ==> Pre-Iterations <==

   -------------------------------------------------------
    Irrep   Nso     Nmo     Nalpha   Nbeta   Ndocc  Nsocc
   -------------------------------------------------------
     A         24      24       0       0       0       0
   -------------------------------------------------------
    Total      24      24      15      15      15       0
   -------------------------------------------------------

  ==> Integral Setup <==

  DFHelper Memory: AOs need 0.003 GiB; user supplied 0.349 GiB. Using in-core AOs.

  ==> MemDFJK: Density-Fitted J/K Matrices <==

    J tasked:                   Yes
    K tasked:                   Yes
    wK tasked:                   No
    OpenMP threads:               4
    Memory [MiB]:               357
    Algorithm:                 Core
    Schwarz Cutoff:           1E-12
    Mask sparsity (%):       1.0417
    Fitting Condition:        1E-10

   => Auxiliary Basis Set <=

  Basis Set: (STO-3G AUX)
    Blend: DEF2-SVP-JKFIT
    Number of shells: 129
    Number of basis function: 393
    Number of Cartesian functions: 459
    Spherical Harmonics?: true
    Max angular momentum: 4

  Minimum eigenvalue in the overlap matrix is 2.4901277229E-01.
  Using Symmetric Orthogonalization.

  SCF Guess: Superposition of Atomic Densities via on-the-fly atomic UHF.

  ==> Iterations <==

                           Total Energy        Delta E     RMS |[F,P]|

   @DF-RHF iter SAD:  -163.75875070694627   -1.63759e+02   0.00000e+00 
   @DF-RHF iter   1:  -166.28733719656361   -2.52859e+00   1.20662e-02 DIIS
   @DF-RHF iter   2:  -166.34703486114125   -5.96977e-02   2.29159e-03 DIIS
   @DF-RHF iter   3:  -166.34882739218133   -1.79253e-03   4.71880e-04 DIIS
   @DF-RHF iter   4:  -166.34893422723971   -1.06835e-04   5.93707e-06 DIIS
   @DF-RHF iter   5:  -166.34893425407918   -2.68395e-08   1.12228e-06 DIIS
   @DF-RHF iter   6:  -166.34893425512519   -1.04600e-09   1.58692e-07 DIIS
  Energy and wave function converged.


  ==> Post-Iterations <==

    Orbital Energies [Eh]
    ---------------------

    Doubly Occupied:                                                      

       1A    -15.311530     2A    -15.311530     3A    -15.311489  
       4A     -1.113061     5A     -1.109931     6A     -1.109931  
       7A     -0.605291     8A     -0.596257     9A     -0.595223  
      10A     -0.595223    11A     -0.591010    12A     -0.591010  
      13A     -0.363602    14A     -0.361617    15A     -0.361617  

    Virtual:                                                              

      16A      0.597587    17A      0.673810    18A      0.673810  
      19A      0.714493    20A      0.745587    21A      0.751957  
      22A      0.751957    23A      0.777998    24A      0.777998  

    Final Occupation by Irrep:
              A 
    DOCC [    15 ]

  @DF-RHF Final Energy:  -166.34893425512519

   => Energetics <=

    Nuclear Repulsion Energy =             77.8732086709316036
    One-Electron Energy =                -380.5876481958941895
    Two-Electron Energy =                 136.3655052698373993
    Total Energy =                       -166.3489342551251866

Computation Completed


Properties will be evaluated at   0.000000,   0.000000,   0.000000 [a0]

Properties computed using the SCF density matrix

  Nuclear Dipole Moment: [e a0]
     X:    12.1210      Y:    55.2997      Z:   -90.1289

  Electronic Dipole Moment: [e a0]
     X:   -12.5150      Y:   -54.9057      Z:    90.5229

  Dipole Moment: [e a0]
     X:    -0.3940      Y:     0.3940      Z:     0.3940     Total:     0.6824

  Dipole Moment: [D]
     X:    -1.0014      Y:     1.0014      Z:     1.0014     Total:     1.7344


*** tstop() called on Vanadium at Thu Sep 26 15:07:30 2019
Module time:
	user time   =       4.81 seconds =       0.08 minutes
	system time =       0.71 seconds =       0.01 minutes
	total time  =          2 seconds =       0.03 minutes
Total time:
	user time   =      45.61 seconds =       0.76 minutes
	system time =       8.69 seconds =       0.14 minutes
	total time  =         20 seconds =       0.33 minutes

       N-Body: Complex Energy (fragments = (1, 2, 3), basis = (1, 2, 3):  -166.34893425512519)

   ==> N-Body: Counterpoise Corrected (CP) energies <==

   n-Body     Total Energy [Eh]       I.E. [kcal/mol]      Delta [kcal/mol]
        1     -166.349896077479        0.000000000000        0.000000000000
        2     -166.348606065584        0.809494685742        0.809494685742
        3     -166.348649018211        0.782541505351       -0.026953180392

   => Loading Basis Set <=

    Name: DEF2-SVP
    Role: ORBITAL
    Keyword: BASIS
    atoms 1, 5, 9         entry N          line   110 file /home/carlosborca/miniconda3/envs/CrystaLattE/share/psi4/basis/def2-svp.gbs 
    atoms 2-4, 6-8, 10-12 entry H          line    15 file /home/carlosborca/miniconda3/envs/CrystaLattE/share/psi4/basis/def2-svp.gbs 


    Psi4 stopped on: Thursday, 26 September 2019 03:07PM
    Psi4 wall time for execution: 0:00:19.76

*** Psi4 exiting successfully. Buy a developer a beer!
