
    -----------------------------------------------------------------------
          Psi4: An Open-Source Ab Initio Electronic Structure Package
                               Psi4 1.4a2.dev37 

                         Git: Rev {master} a6305a1 


    R. M. Parrish, L. A. Burns, D. G. A. Smith, A. C. Simmonett,
    A. E. DePrince III, E. G. Hohenstein, U. Bozkaya, A. Yu. Sokolov,
    R. Di Remigio, R. M. Richard, J. F. Gonthier, A. M. James,
    H. R. McAlexander, A. Kumar, M. Saitow, X. Wang, B. P. Pritchard,
    P. Verma, H. F. Schaefer III, K. Patkowski, R. A. King, E. F. Valeev,
    F. A. Evangelista, J. M. Turney, T. D. Crawford, and C. D. Sherrill,
    J. Chem. Theory Comput. 13(7) pp 3185--3197 (2017).
    (doi: 10.1021/acs.jctc.7b00174)


                         Additional Contributions by
    P. Kraus, H. Kruse, M. H. Lechner, M. C. Schieber, R. A. Shaw,
    A. Alenaizan, R. Galvelis, Z. L. Glick, S. Lehtola, and J. P. Misiewicz

    -----------------------------------------------------------------------


    Psi4 started on: Thursday, 26 September 2019 03:59PM

    Process ID: 1606
    Host:       Vanadium
    PSIDATADIR: /home/carlosborca/miniconda3/envs/CrystaLattE/share/psi4
    Memory:     500.0 MiB
    Threads:    4
    
  ==> Input File <==

--------------------------------------------------------------------------
# PSI4 file produced by CrystaLattE

# Psithon input for N-mer:      4mer-0+1+2+3
# Number of replicas:           1
# Priority index for input:     6.93744950e-13
# Minimum monomer separations:  2.428  2.428  2.428  2.588  2.588  2.588 
# COM priority index for input: 8.28921594e-16
# Minimum COM separations:      3.418  3.418  3.418  3.883  3.883  3.883 

memory 500 MB

molecule Tetramer_0_1_2_3 {
  N           -1.68115516      -1.68115516      -1.68115516 
  H           -2.60026315      -0.14736840      -1.13434212 
  H           -1.13434212      -2.60026315      -0.14736840 
  H           -0.14736840      -1.13434212      -2.60026315 
--
  N            3.92851196       3.16646478      -0.91910799 
  H            2.39472520       3.71327782       0.00000000 
  H            4.84761994       4.70025154      -1.46592103 
  H            3.38169892       2.24735679      -2.45289475 
--
  N            3.16646478      -0.91910799       3.92851196 
  H            2.24735679      -2.45289475       3.38169892 
  H            3.71327782       0.00000000       2.39472520 
  H            4.70025154      -1.46592103       4.84761994 
--
  N           -0.91910799       3.92851196       3.16646478 
  H           -1.46592103       4.84761994       4.70025154 
  H           -2.45289475       3.38169892       2.24735679 
  H            0.00000000       2.39472520       3.71327782 
units = au
no_com
no_reorient
}

set {
  e_convergence 8
  scf_type df
  mp2_type df
  cc_type df
  freeze_core true
}

energy('scf/STO-3G', bsse_type = 'nocp')

--------------------------------------------------------------------------

  Memory set to 476.837 MiB by Python driver.


   ===> N-Body Interaction Abacus <===
        BSSE Treatment:                     nocp
        Number of 1-body computations:     4
        Number of 2-body computations:     6
        Number of 3-body computations:     4
        Number of 4-body computations:     1

   ==> N-Body: Now computing 1-body complexes <==


       N-Body: Computing complex (1/4) with fragments (4,) in the basis of fragments (4,).


*** tstart() called on Vanadium
*** at Thu Sep 26 15:59:28 2019

   => Loading Basis Set <=

    Name: STO-3G
    Role: ORBITAL
    Keyword: BASIS
    atoms 1   entry N          line    71 file /home/carlosborca/miniconda3/envs/CrystaLattE/share/psi4/basis/sto-3g.gbs 
    atoms 2-4 entry H          line    19 file /home/carlosborca/miniconda3/envs/CrystaLattE/share/psi4/basis/sto-3g.gbs 


         ---------------------------------------------------------
                                   SCF
               by Justin Turney, Rob Parrish, Andy Simmonett
                          and Daniel G. A. Smith
                              RHF Reference
                        4 Threads,    476 MiB Core
         ---------------------------------------------------------

  ==> Geometry <==

    Molecular point group: c1
    Full point group: C1

    Geometry (in Bohr), charge = 0, multiplicity = 1:

       Center              X                  Y                   Z               Mass       
    ------------   -----------------  -----------------  -----------------  -----------------
         N           -0.919107990000     3.928511960000     3.166464780000    14.003074004430
         H           -1.465921030000     4.847619940000     4.700251540000     1.007825032230
         H           -2.452894750000     3.381698920000     2.247356790000     1.007825032230
         H            0.000000000000     2.394725200000     3.713277820000     1.007825032230

  Running in c1 symmetry.

  Rotational constants: A =     10.50680  B =      0.13254  C =      0.13153 [cm^-1]
  Rotational constants: A = 314985.91418  B =   3973.38736  C =   3943.16163 [MHz]
  Nuclear repulsion =   12.223291200851138

  Charge       = 0
  Multiplicity = 1
  Electrons    = 10
  Nalpha       = 5
  Nbeta        = 5

  ==> Algorithm <==

  SCF Algorithm Type is DF.
  DIIS enabled.
  MOM disabled.
  Fractional occupation disabled.
  Guess Type is SAD.
  Energy threshold   = 1.00e-08
  Density threshold  = 1.00e-06
  Integral threshold = 0.00e+00

  ==> Primary Basis <==

  Basis Set: STO-3G
    Blend: STO-3G
    Number of shells: 6
    Number of basis function: 8
    Number of Cartesian functions: 8
    Spherical Harmonics?: true
    Max angular momentum: 1

   => Loading Basis Set <=

    Name: (STO-3G AUX)
    Role: JKFIT
    Keyword: DF_BASIS_SCF
    atoms 1   entry N          line   263 file /home/carlosborca/miniconda3/envs/CrystaLattE/share/psi4/basis/def2-svp-jkfit.gbs 
    atoms 2-4 entry H          line    23 file /home/carlosborca/miniconda3/envs/CrystaLattE/share/psi4/basis/def2-svp-jkfit.gbs 

  ==> Pre-Iterations <==

   -------------------------------------------------------
    Irrep   Nso     Nmo     Nalpha   Nbeta   Ndocc  Nsocc
   -------------------------------------------------------
     A          8       8       0       0       0       0
   -------------------------------------------------------
    Total       8       8       5       5       5       0
   -------------------------------------------------------

  ==> Integral Setup <==

  DFHelper Memory: AOs need 0.000 GiB; user supplied 0.349 GiB. Using in-core AOs.

  ==> MemDFJK: Density-Fitted J/K Matrices <==

    J tasked:                   Yes
    K tasked:                   Yes
    wK tasked:                   No
    OpenMP threads:               4
    Memory [MiB]:               357
    Algorithm:                 Core
    Schwarz Cutoff:           1E-12
    Mask sparsity (%):       0.0000
    Fitting Condition:        1E-10

   => Auxiliary Basis Set <=

  Basis Set: (STO-3G AUX)
    Blend: DEF2-SVP-JKFIT
    Number of shells: 43
    Number of basis function: 131
    Number of Cartesian functions: 153
    Spherical Harmonics?: true
    Max angular momentum: 4

  Minimum eigenvalue in the overlap matrix is 2.5446568031E-01.
  Using Symmetric Orthogonalization.

  SCF Guess: Superposition of Atomic Densities via on-the-fly atomic UHF.

  ==> Iterations <==

                           Total Energy        Delta E     RMS |[F,P]|

   @DF-RHF iter SAD:   -54.58562506170266   -5.45856e+01   0.00000e+00 
   @DF-RHF iter   1:   -55.42957380016242   -8.43949e-01   2.08005e-02 DIIS
   @DF-RHF iter   2:   -55.44933997574164   -1.97662e-02   3.93998e-03 DIIS
   @DF-RHF iter   3:   -55.44993006298657   -5.90087e-04   8.13904e-04 DIIS
   @DF-RHF iter   4:   -55.44996535331004   -3.52903e-05   7.59270e-06 DIIS
   @DF-RHF iter   5:   -55.44996535915973   -5.84969e-09   9.86692e-07 DIIS
  Energy and wave function converged.


  ==> Post-Iterations <==

    Orbital Energies [Eh]
    ---------------------

    Doubly Occupied:                                                      

       1A    -15.300501     2A     -1.100051     3A     -0.584614  
       4A     -0.584614     5A     -0.351735  

    Virtual:                                                              

       6A      0.663673     7A      0.759629     8A      0.759629  

    Final Occupation by Irrep:
              A 
    DOCC [     5 ]

  @DF-RHF Final Energy:   -55.44996535915973

   => Energetics <=

    Nuclear Repulsion Energy =             12.2232912008511381
    One-Electron Energy =                 -99.5034370119296199
    Two-Electron Energy =                  31.8301804519187570
    Total Energy =                        -55.4499653591597266

Computation Completed


Properties will be evaluated at   0.000000,   0.000000,   0.000000 [a0]

Properties computed using the SCF density matrix

  Nuclear Dipole Moment: [e a0]
     X:   -10.3526      Y:    38.1236      Z:    32.8261

  Electronic Dipole Moment: [e a0]
     X:     9.9577      Y:   -38.5185      Z:   -32.4312

  Dipole Moment: [e a0]
     X:    -0.3949      Y:    -0.3949      Z:     0.3949     Total:     0.6840

  Dipole Moment: [D]
     X:    -1.0038      Y:    -1.0038      Z:     1.0038     Total:     1.7386


*** tstop() called on Vanadium at Thu Sep 26 15:59:29 2019
Module time:
	user time   =       4.06 seconds =       0.07 minutes
	system time =       0.77 seconds =       0.01 minutes
	total time  =          1 seconds =       0.02 minutes
Total time:
	user time   =       4.06 seconds =       0.07 minutes
	system time =       0.77 seconds =       0.01 minutes
	total time  =          1 seconds =       0.02 minutes

       N-Body: Complex Energy (fragments = (4,), basis = (4,):   -55.44996535915973)

       N-Body: Computing complex (2/4) with fragments (3,) in the basis of fragments (3,).


*** tstart() called on Vanadium
*** at Thu Sep 26 15:59:29 2019

   => Loading Basis Set <=

    Name: STO-3G
    Role: ORBITAL
    Keyword: BASIS
    atoms 1   entry N          line    71 file /home/carlosborca/miniconda3/envs/CrystaLattE/share/psi4/basis/sto-3g.gbs 
    atoms 2-4 entry H          line    19 file /home/carlosborca/miniconda3/envs/CrystaLattE/share/psi4/basis/sto-3g.gbs 


         ---------------------------------------------------------
                                   SCF
               by Justin Turney, Rob Parrish, Andy Simmonett
                          and Daniel G. A. Smith
                              RHF Reference
                        4 Threads,    476 MiB Core
         ---------------------------------------------------------

  ==> Geometry <==

    Molecular point group: c1
    Full point group: C1

    Geometry (in Bohr), charge = 0, multiplicity = 1:

       Center              X                  Y                   Z               Mass       
    ------------   -----------------  -----------------  -----------------  -----------------
         N            3.166464780000    -0.919107990000     3.928511960000    14.003074004430
         H            2.247356790000    -2.452894750000     3.381698920000     1.007825032230
         H            3.713277820000     0.000000000000     2.394725200000     1.007825032230
         H            4.700251540000    -1.465921030000     4.847619940000     1.007825032230

  Running in c1 symmetry.

  Rotational constants: A =     10.50680  B =      0.13254  C =      0.13153 [cm^-1]
  Rotational constants: A = 314985.91418  B =   3973.38736  C =   3943.16163 [MHz]
  Nuclear repulsion =   12.223291200851136

  Charge       = 0
  Multiplicity = 1
  Electrons    = 10
  Nalpha       = 5
  Nbeta        = 5

  ==> Algorithm <==

  SCF Algorithm Type is DF.
  DIIS enabled.
  MOM disabled.
  Fractional occupation disabled.
  Guess Type is SAD.
  Energy threshold   = 1.00e-08
  Density threshold  = 1.00e-06
  Integral threshold = 0.00e+00

  ==> Primary Basis <==

  Basis Set: STO-3G
    Blend: STO-3G
    Number of shells: 6
    Number of basis function: 8
    Number of Cartesian functions: 8
    Spherical Harmonics?: true
    Max angular momentum: 1

   => Loading Basis Set <=

    Name: (STO-3G AUX)
    Role: JKFIT
    Keyword: DF_BASIS_SCF
    atoms 1   entry N          line   263 file /home/carlosborca/miniconda3/envs/CrystaLattE/share/psi4/basis/def2-svp-jkfit.gbs 
    atoms 2-4 entry H          line    23 file /home/carlosborca/miniconda3/envs/CrystaLattE/share/psi4/basis/def2-svp-jkfit.gbs 

  ==> Pre-Iterations <==

   -------------------------------------------------------
    Irrep   Nso     Nmo     Nalpha   Nbeta   Ndocc  Nsocc
   -------------------------------------------------------
     A          8       8       0       0       0       0
   -------------------------------------------------------
    Total       8       8       5       5       5       0
   -------------------------------------------------------

  ==> Integral Setup <==

  DFHelper Memory: AOs need 0.000 GiB; user supplied 0.349 GiB. Using in-core AOs.

  ==> MemDFJK: Density-Fitted J/K Matrices <==

    J tasked:                   Yes
    K tasked:                   Yes
    wK tasked:                   No
    OpenMP threads:               4
    Memory [MiB]:               357
    Algorithm:                 Core
    Schwarz Cutoff:           1E-12
    Mask sparsity (%):       0.0000
    Fitting Condition:        1E-10

   => Auxiliary Basis Set <=

  Basis Set: (STO-3G AUX)
    Blend: DEF2-SVP-JKFIT
    Number of shells: 43
    Number of basis function: 131
    Number of Cartesian functions: 153
    Spherical Harmonics?: true
    Max angular momentum: 4

  Minimum eigenvalue in the overlap matrix is 2.5446568031E-01.
  Using Symmetric Orthogonalization.

  SCF Guess: Superposition of Atomic Densities via on-the-fly atomic UHF.

  ==> Iterations <==

                           Total Energy        Delta E     RMS |[F,P]|

   @DF-RHF iter SAD:   -54.58562506171287   -5.45856e+01   0.00000e+00 
   @DF-RHF iter   1:   -55.42957380017284   -8.43949e-01   2.08005e-02 DIIS
   @DF-RHF iter   2:   -55.44933997575209   -1.97662e-02   3.93998e-03 DIIS
   @DF-RHF iter   3:   -55.44993006299702   -5.90087e-04   8.13904e-04 DIIS
   @DF-RHF iter   4:   -55.44996535332050   -3.52903e-05   7.59270e-06 DIIS
   @DF-RHF iter   5:   -55.44996535917009   -5.84959e-09   9.86692e-07 DIIS
  Energy and wave function converged.


  ==> Post-Iterations <==

    Orbital Energies [Eh]
    ---------------------

    Doubly Occupied:                                                      

       1A    -15.300501     2A     -1.100051     3A     -0.584614  
       4A     -0.584614     5A     -0.351735  

    Virtual:                                                              

       6A      0.663673     7A      0.759629     8A      0.759629  

    Final Occupation by Irrep:
              A 
    DOCC [     5 ]

  @DF-RHF Final Energy:   -55.44996535917009

   => Energetics <=

    Nuclear Repulsion Energy =             12.2232912008511363
    One-Electron Energy =                 -99.5034370119315525
    Two-Electron Energy =                  31.8301804519103229
    Total Energy =                        -55.4499653591700934

Computation Completed


Properties will be evaluated at   0.000000,   0.000000,   0.000000 [a0]

Properties computed using the SCF density matrix

  Nuclear Dipole Moment: [e a0]
     X:    32.8261      Y:   -10.3526      Z:    38.1236

  Electronic Dipole Moment: [e a0]
     X:   -32.4312      Y:     9.9577      Z:   -38.5185

  Dipole Moment: [e a0]
     X:     0.3949      Y:    -0.3949      Z:    -0.3949     Total:     0.6840

  Dipole Moment: [D]
     X:     1.0038      Y:    -1.0038      Z:    -1.0038     Total:     1.7386


*** tstop() called on Vanadium at Thu Sep 26 15:59:31 2019
Module time:
	user time   =       3.86 seconds =       0.06 minutes
	system time =       0.86 seconds =       0.01 minutes
	total time  =          2 seconds =       0.03 minutes
Total time:
	user time   =       7.97 seconds =       0.13 minutes
	system time =       1.64 seconds =       0.03 minutes
	total time  =          3 seconds =       0.05 minutes

       N-Body: Complex Energy (fragments = (3,), basis = (3,):   -55.44996535917009)

       N-Body: Computing complex (3/4) with fragments (2,) in the basis of fragments (2,).


*** tstart() called on Vanadium
*** at Thu Sep 26 15:59:31 2019

   => Loading Basis Set <=

    Name: STO-3G
    Role: ORBITAL
    Keyword: BASIS
    atoms 1   entry N          line    71 file /home/carlosborca/miniconda3/envs/CrystaLattE/share/psi4/basis/sto-3g.gbs 
    atoms 2-4 entry H          line    19 file /home/carlosborca/miniconda3/envs/CrystaLattE/share/psi4/basis/sto-3g.gbs 


         ---------------------------------------------------------
                                   SCF
               by Justin Turney, Rob Parrish, Andy Simmonett
                          and Daniel G. A. Smith
                              RHF Reference
                        4 Threads,    476 MiB Core
         ---------------------------------------------------------

  ==> Geometry <==

    Molecular point group: c1
    Full point group: C1

    Geometry (in Bohr), charge = 0, multiplicity = 1:

       Center              X                  Y                   Z               Mass       
    ------------   -----------------  -----------------  -----------------  -----------------
         N            3.928511960000     3.166464780000    -0.919107990000    14.003074004430
         H            2.394725200000     3.713277820000     0.000000000000     1.007825032230
         H            4.847619940000     4.700251540000    -1.465921030000     1.007825032230
         H            3.381698920000     2.247356790000    -2.452894750000     1.007825032230

  Running in c1 symmetry.

  Rotational constants: A =     10.50680  B =      0.13254  C =      0.13153 [cm^-1]
  Rotational constants: A = 314985.91418  B =   3973.38736  C =   3943.16163 [MHz]
  Nuclear repulsion =   12.223291200851136

  Charge       = 0
  Multiplicity = 1
  Electrons    = 10
  Nalpha       = 5
  Nbeta        = 5

  ==> Algorithm <==

  SCF Algorithm Type is DF.
  DIIS enabled.
  MOM disabled.
  Fractional occupation disabled.
  Guess Type is SAD.
  Energy threshold   = 1.00e-08
  Density threshold  = 1.00e-06
  Integral threshold = 0.00e+00

  ==> Primary Basis <==

  Basis Set: STO-3G
    Blend: STO-3G
    Number of shells: 6
    Number of basis function: 8
    Number of Cartesian functions: 8
    Spherical Harmonics?: true
    Max angular momentum: 1

   => Loading Basis Set <=

    Name: (STO-3G AUX)
    Role: JKFIT
    Keyword: DF_BASIS_SCF
    atoms 1   entry N          line   263 file /home/carlosborca/miniconda3/envs/CrystaLattE/share/psi4/basis/def2-svp-jkfit.gbs 
    atoms 2-4 entry H          line    23 file /home/carlosborca/miniconda3/envs/CrystaLattE/share/psi4/basis/def2-svp-jkfit.gbs 

  ==> Pre-Iterations <==

   -------------------------------------------------------
    Irrep   Nso     Nmo     Nalpha   Nbeta   Ndocc  Nsocc
   -------------------------------------------------------
     A          8       8       0       0       0       0
   -------------------------------------------------------
    Total       8       8       5       5       5       0
   -------------------------------------------------------

  ==> Integral Setup <==

  DFHelper Memory: AOs need 0.000 GiB; user supplied 0.349 GiB. Using in-core AOs.

  ==> MemDFJK: Density-Fitted J/K Matrices <==

    J tasked:                   Yes
    K tasked:                   Yes
    wK tasked:                   No
    OpenMP threads:               4
    Memory [MiB]:               357
    Algorithm:                 Core
    Schwarz Cutoff:           1E-12
    Mask sparsity (%):       0.0000
    Fitting Condition:        1E-10

   => Auxiliary Basis Set <=

  Basis Set: (STO-3G AUX)
    Blend: DEF2-SVP-JKFIT
    Number of shells: 43
    Number of basis function: 131
    Number of Cartesian functions: 153
    Spherical Harmonics?: true
    Max angular momentum: 4

  Minimum eigenvalue in the overlap matrix is 2.5446568031E-01.
  Using Symmetric Orthogonalization.

  SCF Guess: Superposition of Atomic Densities via on-the-fly atomic UHF.

  ==> Iterations <==

                           Total Energy        Delta E     RMS |[F,P]|

   @DF-RHF iter SAD:   -54.58562506171484   -5.45856e+01   0.00000e+00 
   @DF-RHF iter   1:   -55.42957380017452   -8.43949e-01   2.08005e-02 DIIS
   @DF-RHF iter   2:   -55.44933997575384   -1.97662e-02   3.93998e-03 DIIS
   @DF-RHF iter   3:   -55.44993006299882   -5.90087e-04   8.13904e-04 DIIS
   @DF-RHF iter   4:   -55.44996535332225   -3.52903e-05   7.59270e-06 DIIS
   @DF-RHF iter   5:   -55.44996535917190   -5.84965e-09   9.86692e-07 DIIS
  Energy and wave function converged.


  ==> Post-Iterations <==

    Orbital Energies [Eh]
    ---------------------

    Doubly Occupied:                                                      

       1A    -15.300501     2A     -1.100051     3A     -0.584614  
       4A     -0.584614     5A     -0.351735  

    Virtual:                                                              

       6A      0.663673     7A      0.759629     8A      0.759629  

    Final Occupation by Irrep:
              A 
    DOCC [     5 ]

  @DF-RHF Final Energy:   -55.44996535917190

   => Energetics <=

    Nuclear Repulsion Energy =             12.2232912008511363
    One-Electron Energy =                 -99.5034370119357590
    Two-Electron Energy =                  31.8301804519127245
    Total Energy =                        -55.4499653591718982

Computation Completed


Properties will be evaluated at   0.000000,   0.000000,   0.000000 [a0]

Properties computed using the SCF density matrix

  Nuclear Dipole Moment: [e a0]
     X:    38.1236      Y:    32.8261      Z:   -10.3526

  Electronic Dipole Moment: [e a0]
     X:   -38.5185      Y:   -32.4312      Z:     9.9577

  Dipole Moment: [e a0]
     X:    -0.3949      Y:     0.3949      Z:    -0.3949     Total:     0.6840

  Dipole Moment: [D]
     X:    -1.0038      Y:     1.0038      Z:    -1.0038     Total:     1.7386


*** tstop() called on Vanadium at Thu Sep 26 15:59:32 2019
Module time:
	user time   =       3.80 seconds =       0.06 minutes
	system time =       0.98 seconds =       0.02 minutes
	total time  =          1 seconds =       0.02 minutes
Total time:
	user time   =      11.89 seconds =       0.20 minutes
	system time =       2.62 seconds =       0.04 minutes
	total time  =          4 seconds =       0.07 minutes

       N-Body: Complex Energy (fragments = (2,), basis = (2,):   -55.44996535917190)

       N-Body: Computing complex (4/4) with fragments (1,) in the basis of fragments (1,).


*** tstart() called on Vanadium
*** at Thu Sep 26 15:59:32 2019

   => Loading Basis Set <=

    Name: STO-3G
    Role: ORBITAL
    Keyword: BASIS
    atoms 1   entry N          line    71 file /home/carlosborca/miniconda3/envs/CrystaLattE/share/psi4/basis/sto-3g.gbs 
    atoms 2-4 entry H          line    19 file /home/carlosborca/miniconda3/envs/CrystaLattE/share/psi4/basis/sto-3g.gbs 


         ---------------------------------------------------------
                                   SCF
               by Justin Turney, Rob Parrish, Andy Simmonett
                          and Daniel G. A. Smith
                              RHF Reference
                        4 Threads,    476 MiB Core
         ---------------------------------------------------------

  ==> Geometry <==

    Molecular point group: c1
    Full point group: C1

    Geometry (in Bohr), charge = 0, multiplicity = 1:

       Center              X                  Y                   Z               Mass       
    ------------   -----------------  -----------------  -----------------  -----------------
         N           -1.681155160000    -1.681155160000    -1.681155160000    14.003074004430
         H           -2.600263150000    -0.147368400000    -1.134342120000     1.007825032230
         H           -1.134342120000    -2.600263150000    -0.147368400000     1.007825032230
         H           -0.147368400000    -1.134342120000    -2.600263150000     1.007825032230

  Running in c1 symmetry.

  Rotational constants: A =      6.53545  B =      0.43458  C =      0.43458 [cm^-1]
  Rotational constants: A = 195927.87342  B =  13028.43972  C =  13028.43972 [MHz]
  Nuclear repulsion =   12.223291189591457

  Charge       = 0
  Multiplicity = 1
  Electrons    = 10
  Nalpha       = 5
  Nbeta        = 5

  ==> Algorithm <==

  SCF Algorithm Type is DF.
  DIIS enabled.
  MOM disabled.
  Fractional occupation disabled.
  Guess Type is SAD.
  Energy threshold   = 1.00e-08
  Density threshold  = 1.00e-06
  Integral threshold = 0.00e+00

  ==> Primary Basis <==

  Basis Set: STO-3G
    Blend: STO-3G
    Number of shells: 6
    Number of basis function: 8
    Number of Cartesian functions: 8
    Spherical Harmonics?: true
    Max angular momentum: 1

   => Loading Basis Set <=

    Name: (STO-3G AUX)
    Role: JKFIT
    Keyword: DF_BASIS_SCF
    atoms 1   entry N          line   263 file /home/carlosborca/miniconda3/envs/CrystaLattE/share/psi4/basis/def2-svp-jkfit.gbs 
    atoms 2-4 entry H          line    23 file /home/carlosborca/miniconda3/envs/CrystaLattE/share/psi4/basis/def2-svp-jkfit.gbs 

  ==> Pre-Iterations <==

   -------------------------------------------------------
    Irrep   Nso     Nmo     Nalpha   Nbeta   Ndocc  Nsocc
   -------------------------------------------------------
     A          8       8       0       0       0       0
   -------------------------------------------------------
    Total       8       8       5       5       5       0
   -------------------------------------------------------

  ==> Integral Setup <==

  DFHelper Memory: AOs need 0.000 GiB; user supplied 0.349 GiB. Using in-core AOs.

  ==> MemDFJK: Density-Fitted J/K Matrices <==

    J tasked:                   Yes
    K tasked:                   Yes
    wK tasked:                   No
    OpenMP threads:               4
    Memory [MiB]:               357
    Algorithm:                 Core
    Schwarz Cutoff:           1E-12
    Mask sparsity (%):       0.0000
    Fitting Condition:        1E-10

   => Auxiliary Basis Set <=

  Basis Set: (STO-3G AUX)
    Blend: DEF2-SVP-JKFIT
    Number of shells: 43
    Number of basis function: 131
    Number of Cartesian functions: 153
    Spherical Harmonics?: true
    Max angular momentum: 4

  Minimum eigenvalue in the overlap matrix is 2.5446568092E-01.
  Using Symmetric Orthogonalization.

  SCF Guess: Superposition of Atomic Densities via on-the-fly atomic UHF.

  ==> Iterations <==

                           Total Energy        Delta E     RMS |[F,P]|

   @DF-RHF iter SAD:   -54.58562505887945   -5.45856e+01   0.00000e+00 
   @DF-RHF iter   1:   -55.42957380035036   -8.43949e-01   2.08005e-02 DIIS
   @DF-RHF iter   2:   -55.44933997592625   -1.97662e-02   3.93998e-03 DIIS
   @DF-RHF iter   3:   -55.44993006317267   -5.90087e-04   8.13904e-04 DIIS
   @DF-RHF iter   4:   -55.44996535349630   -3.52903e-05   7.59270e-06 DIIS
   @DF-RHF iter   5:   -55.44996535934591   -5.84961e-09   9.86692e-07 DIIS
  Energy and wave function converged.


  ==> Post-Iterations <==

    Orbital Energies [Eh]
    ---------------------

    Doubly Occupied:                                                      

       1A    -15.300501     2A     -1.100051     3A     -0.584614  
       4A     -0.584614     5A     -0.351735  

    Virtual:                                                              

       6A      0.663673     7A      0.759629     8A      0.759629  

    Final Occupation by Irrep:
              A 
    DOCC [     5 ]

  @DF-RHF Final Energy:   -55.44996535934591

   => Energetics <=

    Nuclear Repulsion Energy =             12.2232911895914569
    One-Electron Energy =                 -99.5034369941981680
    Two-Electron Energy =                  31.8301804452608081
    Total Energy =                        -55.4499653593459101

Computation Completed


Properties will be evaluated at   0.000000,   0.000000,   0.000000 [a0]

Properties computed using the SCF density matrix

  Nuclear Dipole Moment: [e a0]
     X:   -15.6501      Y:   -15.6501      Z:   -15.6501

  Electronic Dipole Moment: [e a0]
     X:    16.0450      Y:    16.0450      Z:    16.0450

  Dipole Moment: [e a0]
     X:     0.3949      Y:     0.3949      Z:     0.3949     Total:     0.6840

  Dipole Moment: [D]
     X:     1.0038      Y:     1.0038      Z:     1.0038     Total:     1.7386


*** tstop() called on Vanadium at Thu Sep 26 15:59:34 2019
Module time:
	user time   =       4.53 seconds =       0.08 minutes
	system time =       1.29 seconds =       0.02 minutes
	total time  =          2 seconds =       0.03 minutes
Total time:
	user time   =      16.51 seconds =       0.28 minutes
	system time =       3.95 seconds =       0.07 minutes
	total time  =          6 seconds =       0.10 minutes

       N-Body: Complex Energy (fragments = (1,), basis = (1,):   -55.44996535934591)

   ==> N-Body: Now computing 2-body complexes <==


       N-Body: Computing complex (1/6) with fragments (1, 2) in the basis of fragments (1, 2).


*** tstart() called on Vanadium
*** at Thu Sep 26 15:59:34 2019

   => Loading Basis Set <=

    Name: STO-3G
    Role: ORBITAL
    Keyword: BASIS
    atoms 1, 5     entry N          line    71 file /home/carlosborca/miniconda3/envs/CrystaLattE/share/psi4/basis/sto-3g.gbs 
    atoms 2-4, 6-8 entry H          line    19 file /home/carlosborca/miniconda3/envs/CrystaLattE/share/psi4/basis/sto-3g.gbs 


         ---------------------------------------------------------
                                   SCF
               by Justin Turney, Rob Parrish, Andy Simmonett
                          and Daniel G. A. Smith
                              RHF Reference
                        4 Threads,    476 MiB Core
         ---------------------------------------------------------

  ==> Geometry <==

    Molecular point group: c1
    Full point group: C1

    Geometry (in Bohr), charge = 0, multiplicity = 1:

       Center              X                  Y                   Z               Mass       
    ------------   -----------------  -----------------  -----------------  -----------------
         N           -1.681155160000    -1.681155160000    -1.681155160000    14.003074004430
         H           -2.600263150000    -0.147368400000    -1.134342120000     1.007825032230
         H           -1.134342120000    -2.600263150000    -0.147368400000     1.007825032230
         H           -0.147368400000    -1.134342120000    -2.600263150000     1.007825032230
         N            3.928511960000     3.166464780000    -0.919107990000    14.003074004430
         H            2.394725200000     3.713277820000     0.000000000000     1.007825032230
         H            4.847619940000     4.700251540000    -1.465921030000     1.007825032230
         H            3.381698920000     2.247356790000    -2.452894750000     1.007825032230

  Running in c1 symmetry.

  Rotational constants: A =      0.81389  B =      0.11262  C =      0.10111 [cm^-1]
  Rotational constants: A =  24399.66655  B =   3376.30827  C =   3031.20899 [MHz]
  Nuclear repulsion =   38.181027420838156

  Charge       = 0
  Multiplicity = 1
  Electrons    = 20
  Nalpha       = 10
  Nbeta        = 10

  ==> Algorithm <==

  SCF Algorithm Type is DF.
  DIIS enabled.
  MOM disabled.
  Fractional occupation disabled.
  Guess Type is SAD.
  Energy threshold   = 1.00e-08
  Density threshold  = 1.00e-06
  Integral threshold = 0.00e+00

  ==> Primary Basis <==

  Basis Set: STO-3G
    Blend: STO-3G
    Number of shells: 12
    Number of basis function: 16
    Number of Cartesian functions: 16
    Spherical Harmonics?: true
    Max angular momentum: 1

   => Loading Basis Set <=

    Name: (STO-3G AUX)
    Role: JKFIT
    Keyword: DF_BASIS_SCF
    atoms 1, 5     entry N          line   263 file /home/carlosborca/miniconda3/envs/CrystaLattE/share/psi4/basis/def2-svp-jkfit.gbs 
    atoms 2-4, 6-8 entry H          line    23 file /home/carlosborca/miniconda3/envs/CrystaLattE/share/psi4/basis/def2-svp-jkfit.gbs 

  ==> Pre-Iterations <==

   -------------------------------------------------------
    Irrep   Nso     Nmo     Nalpha   Nbeta   Ndocc  Nsocc
   -------------------------------------------------------
     A         16      16       0       0       0       0
   -------------------------------------------------------
    Total      16      16      10      10      10       0
   -------------------------------------------------------

  ==> Integral Setup <==

  DFHelper Memory: AOs need 0.001 GiB; user supplied 0.349 GiB. Using in-core AOs.

  ==> MemDFJK: Density-Fitted J/K Matrices <==

    J tasked:                   Yes
    K tasked:                   Yes
    wK tasked:                   No
    OpenMP threads:               4
    Memory [MiB]:               357
    Algorithm:                 Core
    Schwarz Cutoff:           1E-12
    Mask sparsity (%):       0.7812
    Fitting Condition:        1E-10

   => Auxiliary Basis Set <=

  Basis Set: (STO-3G AUX)
    Blend: DEF2-SVP-JKFIT
    Number of shells: 86
    Number of basis function: 262
    Number of Cartesian functions: 306
    Spherical Harmonics?: true
    Max angular momentum: 4

  Minimum eigenvalue in the overlap matrix is 2.4902476447E-01.
  Using Symmetric Orthogonalization.

  SCF Guess: Superposition of Atomic Densities via on-the-fly atomic UHF.

  ==> Iterations <==

                           Total Energy        Delta E     RMS |[F,P]|

   @DF-RHF iter SAD:  -109.17187536361405   -1.09172e+02   0.00000e+00 
   @DF-RHF iter   1:  -110.85868685651454   -1.68681e+00   1.47404e-02 DIIS
   @DF-RHF iter   2:  -110.89833834745350   -3.96515e-02   2.79577e-03 DIIS
   @DF-RHF iter   3:  -110.89952567303533   -1.18733e-03   5.76810e-04 DIIS
   @DF-RHF iter   4:  -110.89959659941231   -7.09264e-05   6.16741e-06 DIIS
   @DF-RHF iter   5:  -110.89959661335394   -1.39416e-08   1.19982e-06 DIIS
   @DF-RHF iter   6:  -110.89959661386980   -5.15868e-10   1.49399e-07 DIIS
  Energy and wave function converged.


  ==> Post-Iterations <==

    Orbital Energies [Eh]
    ---------------------

    Doubly Occupied:                                                      

       1A    -15.309488     2A    -15.302774     3A     -1.109192  
       4A     -1.102065     5A     -0.596255     6A     -0.593544  
       7A     -0.586607     8A     -0.584627     9A     -0.360547  
      10A     -0.353674  

    Virtual:                                                              

      11A      0.631414    12A      0.679403    13A      0.733311  
      14A      0.750523    15A      0.758755    16A      0.784199  

    Final Occupation by Irrep:
              A 
    DOCC [    10 ]

  @DF-RHF Final Energy:  -110.89959661386980

   => Energetics <=

    Nuclear Repulsion Energy =             38.1810274208381557
    One-Electron Energy =                -226.3637036476459627
    Two-Electron Energy =                  77.2830796129380104
    Total Energy =                       -110.8995966138698037

Computation Completed


Properties will be evaluated at   0.000000,   0.000000,   0.000000 [a0]

Properties computed using the SCF density matrix

  Nuclear Dipole Moment: [e a0]
     X:    22.4736      Y:    17.1761      Z:   -26.0026

  Electronic Dipole Moment: [e a0]
     X:   -22.4669      Y:   -16.3865      Z:    26.0088

  Dipole Moment: [e a0]
     X:     0.0067      Y:     0.7896      Z:     0.0062     Total:     0.7897

  Dipole Moment: [D]
     X:     0.0170      Y:     2.0070      Z:     0.0158     Total:     2.0072


*** tstop() called on Vanadium at Thu Sep 26 15:59:36 2019
Module time:
	user time   =       4.24 seconds =       0.07 minutes
	system time =       1.07 seconds =       0.02 minutes
	total time  =          2 seconds =       0.03 minutes
Total time:
	user time   =      20.78 seconds =       0.35 minutes
	system time =       5.05 seconds =       0.08 minutes
	total time  =          8 seconds =       0.13 minutes

       N-Body: Complex Energy (fragments = (1, 2), basis = (1, 2):  -110.89959661386980)

       N-Body: Computing complex (2/6) with fragments (2, 4) in the basis of fragments (2, 4).


*** tstart() called on Vanadium
*** at Thu Sep 26 15:59:36 2019

   => Loading Basis Set <=

    Name: STO-3G
    Role: ORBITAL
    Keyword: BASIS
    atoms 1, 5     entry N          line    71 file /home/carlosborca/miniconda3/envs/CrystaLattE/share/psi4/basis/sto-3g.gbs 
    atoms 2-4, 6-8 entry H          line    19 file /home/carlosborca/miniconda3/envs/CrystaLattE/share/psi4/basis/sto-3g.gbs 


         ---------------------------------------------------------
                                   SCF
               by Justin Turney, Rob Parrish, Andy Simmonett
                          and Daniel G. A. Smith
                              RHF Reference
                        4 Threads,    476 MiB Core
         ---------------------------------------------------------

  ==> Geometry <==

    Molecular point group: c1
    Full point group: C1

    Geometry (in Bohr), charge = 0, multiplicity = 1:

       Center              X                  Y                   Z               Mass       
    ------------   -----------------  -----------------  -----------------  -----------------
         N            3.928511960000     3.166464780000    -0.919107990000    14.003074004430
         H            2.394725200000     3.713277820000     0.000000000000     1.007825032230
         H            4.847619940000     4.700251540000    -1.465921030000     1.007825032230
         H            3.381698920000     2.247356790000    -2.452894750000     1.007825032230
         N           -0.919107990000     3.928511960000     3.166464780000    14.003074004430
         H           -1.465921030000     4.847619940000     4.700251540000     1.007825032230
         H           -2.452894750000     3.381698920000     2.247356790000     1.007825032230
         H            0.000000000000     2.394725200000     3.713277820000     1.007825032230

  Running in c1 symmetry.

  Rotational constants: A =      0.16367  B =      0.10842  C =      0.06599 [cm^-1]
  Rotational constants: A =   4906.84480  B =   3250.32793  C =   1978.44545 [MHz]
  Nuclear repulsion =   39.871673339264788

  Charge       = 0
  Multiplicity = 1
  Electrons    = 20
  Nalpha       = 10
  Nbeta        = 10

  ==> Algorithm <==

  SCF Algorithm Type is DF.
  DIIS enabled.
  MOM disabled.
  Fractional occupation disabled.
  Guess Type is SAD.
  Energy threshold   = 1.00e-08
  Density threshold  = 1.00e-06
  Integral threshold = 0.00e+00

  ==> Primary Basis <==

  Basis Set: STO-3G
    Blend: STO-3G
    Number of shells: 12
    Number of basis function: 16
    Number of Cartesian functions: 16
    Spherical Harmonics?: true
    Max angular momentum: 1

   => Loading Basis Set <=

    Name: (STO-3G AUX)
    Role: JKFIT
    Keyword: DF_BASIS_SCF
    atoms 1, 5     entry N          line   263 file /home/carlosborca/miniconda3/envs/CrystaLattE/share/psi4/basis/def2-svp-jkfit.gbs 
    atoms 2-4, 6-8 entry H          line    23 file /home/carlosborca/miniconda3/envs/CrystaLattE/share/psi4/basis/def2-svp-jkfit.gbs 

  ==> Pre-Iterations <==

   -------------------------------------------------------
    Irrep   Nso     Nmo     Nalpha   Nbeta   Ndocc  Nsocc
   -------------------------------------------------------
     A         16      16       0       0       0       0
   -------------------------------------------------------
    Total      16      16      10      10      10       0
   -------------------------------------------------------

  ==> Integral Setup <==

  DFHelper Memory: AOs need 0.001 GiB; user supplied 0.349 GiB. Using in-core AOs.

  ==> MemDFJK: Density-Fitted J/K Matrices <==

    J tasked:                   Yes
    K tasked:                   Yes
    wK tasked:                   No
    OpenMP threads:               4
    Memory [MiB]:               357
    Algorithm:                 Core
    Schwarz Cutoff:           1E-12
    Mask sparsity (%):       0.7812
    Fitting Condition:        1E-10

   => Auxiliary Basis Set <=

  Basis Set: (STO-3G AUX)
    Blend: DEF2-SVP-JKFIT
    Number of shells: 86
    Number of basis function: 262
    Number of Cartesian functions: 306
    Spherical Harmonics?: true
    Max angular momentum: 4

  Minimum eigenvalue in the overlap matrix is 2.5147679852E-01.
  Using Symmetric Orthogonalization.

  SCF Guess: Superposition of Atomic Densities via on-the-fly atomic UHF.

  ==> Iterations <==

                           Total Energy        Delta E     RMS |[F,P]|

   @DF-RHF iter SAD:  -109.17478620712353   -1.09175e+02   0.00000e+00 
   @DF-RHF iter   1:  -110.86430507037613   -1.68952e+00   1.42847e-02 DIIS
   @DF-RHF iter   2:  -110.90202608325788   -3.77210e-02   2.68562e-03 DIIS
   @DF-RHF iter   3:  -110.90314768848910   -1.12161e-03   5.60194e-04 DIIS
   @DF-RHF iter   4:  -110.90321505435011   -6.73659e-05   9.43708e-06 DIIS
   @DF-RHF iter   5:  -110.90321507675658   -2.24065e-08   2.04330e-06 DIIS
   @DF-RHF iter   6:  -110.90321507804141   -1.28483e-09   4.96358e-07 DIIS
  Energy and wave function converged.


  ==> Post-Iterations <==

    Orbital Energies [Eh]
    ---------------------

    Doubly Occupied:                                                      

       1A    -15.307362     2A    -15.278926     3A     -1.106965  
       4A     -1.081661     5A     -0.594002     6A     -0.591404  
       7A     -0.568124     8A     -0.562387     9A     -0.360429  
      10A     -0.334239  

    Virtual:                                                              

      11A      0.649044    12A      0.693581    13A      0.750709  
      14A      0.754015    15A      0.776083    16A      0.795954  

    Final Occupation by Irrep:
              A 
    DOCC [    10 ]

  @DF-RHF Final Energy:  -110.90321507804141

   => Energetics <=

    Nuclear Repulsion Energy =             39.8716733392647882
    One-Electron Energy =                -229.9787849097626804
    Two-Electron Energy =                  79.2038964924564795
    Total Energy =                       -110.9032150780414128

Computation Completed


Properties will be evaluated at   0.000000,   0.000000,   0.000000 [a0]

Properties computed using the SCF density matrix

  Nuclear Dipole Moment: [e a0]
     X:    27.7711      Y:    70.9498      Z:    22.4736

  Electronic Dipole Moment: [e a0]
     X:   -28.6080      Y:   -70.9411      Z:   -22.4141

  Dipole Moment: [e a0]
     X:    -0.8369      Y:     0.0087      Z:     0.0594     Total:     0.8390

  Dipole Moment: [D]
     X:    -2.1272      Y:     0.0221      Z:     0.1511     Total:     2.1326


*** tstop() called on Vanadium at Thu Sep 26 15:59:38 2019
Module time:
	user time   =       4.24 seconds =       0.07 minutes
	system time =       1.11 seconds =       0.02 minutes
	total time  =          2 seconds =       0.03 minutes
Total time:
	user time   =      25.11 seconds =       0.42 minutes
	system time =       6.17 seconds =       0.10 minutes
	total time  =         10 seconds =       0.17 minutes

       N-Body: Complex Energy (fragments = (2, 4), basis = (2, 4):  -110.90321507804141)

       N-Body: Computing complex (3/6) with fragments (1, 3) in the basis of fragments (1, 3).


*** tstart() called on Vanadium
*** at Thu Sep 26 15:59:38 2019

   => Loading Basis Set <=

    Name: STO-3G
    Role: ORBITAL
    Keyword: BASIS
    atoms 1, 5     entry N          line    71 file /home/carlosborca/miniconda3/envs/CrystaLattE/share/psi4/basis/sto-3g.gbs 
    atoms 2-4, 6-8 entry H          line    19 file /home/carlosborca/miniconda3/envs/CrystaLattE/share/psi4/basis/sto-3g.gbs 


         ---------------------------------------------------------
                                   SCF
               by Justin Turney, Rob Parrish, Andy Simmonett
                          and Daniel G. A. Smith
                              RHF Reference
                        4 Threads,    476 MiB Core
         ---------------------------------------------------------

  ==> Geometry <==

    Molecular point group: c1
    Full point group: C1

    Geometry (in Bohr), charge = 0, multiplicity = 1:

       Center              X                  Y                   Z               Mass       
    ------------   -----------------  -----------------  -----------------  -----------------
         N           -1.681155160000    -1.681155160000    -1.681155160000    14.003074004430
         H           -2.600263150000    -0.147368400000    -1.134342120000     1.007825032230
         H           -1.134342120000    -2.600263150000    -0.147368400000     1.007825032230
         H           -0.147368400000    -1.134342120000    -2.600263150000     1.007825032230
         N            3.166464780000    -0.919107990000     3.928511960000    14.003074004430
         H            2.247356790000    -2.452894750000     3.381698920000     1.007825032230
         H            3.713277820000     0.000000000000     2.394725200000     1.007825032230
         H            4.700251540000    -1.465921030000     4.847619940000     1.007825032230

  Running in c1 symmetry.

  Rotational constants: A =      0.81389  B =      0.11262  C =      0.10111 [cm^-1]
  Rotational constants: A =  24399.66655  B =   3376.30827  C =   3031.20899 [MHz]
  Nuclear repulsion =   38.181027420838156

  Charge       = 0
  Multiplicity = 1
  Electrons    = 20
  Nalpha       = 10
  Nbeta        = 10

  ==> Algorithm <==

  SCF Algorithm Type is DF.
  DIIS enabled.
  MOM disabled.
  Fractional occupation disabled.
  Guess Type is SAD.
  Energy threshold   = 1.00e-08
  Density threshold  = 1.00e-06
  Integral threshold = 0.00e+00

  ==> Primary Basis <==

  Basis Set: STO-3G
    Blend: STO-3G
    Number of shells: 12
    Number of basis function: 16
    Number of Cartesian functions: 16
    Spherical Harmonics?: true
    Max angular momentum: 1

   => Loading Basis Set <=

    Name: (STO-3G AUX)
    Role: JKFIT
    Keyword: DF_BASIS_SCF
    atoms 1, 5     entry N          line   263 file /home/carlosborca/miniconda3/envs/CrystaLattE/share/psi4/basis/def2-svp-jkfit.gbs 
    atoms 2-4, 6-8 entry H          line    23 file /home/carlosborca/miniconda3/envs/CrystaLattE/share/psi4/basis/def2-svp-jkfit.gbs 

  ==> Pre-Iterations <==

   -------------------------------------------------------
    Irrep   Nso     Nmo     Nalpha   Nbeta   Ndocc  Nsocc
   -------------------------------------------------------
     A         16      16       0       0       0       0
   -------------------------------------------------------
    Total      16      16      10      10      10       0
   -------------------------------------------------------

  ==> Integral Setup <==

  DFHelper Memory: AOs need 0.001 GiB; user supplied 0.349 GiB. Using in-core AOs.

  ==> MemDFJK: Density-Fitted J/K Matrices <==

    J tasked:                   Yes
    K tasked:                   Yes
    wK tasked:                   No
    OpenMP threads:               4
    Memory [MiB]:               357
    Algorithm:                 Core
    Schwarz Cutoff:           1E-12
    Mask sparsity (%):       0.7812
    Fitting Condition:        1E-10

   => Auxiliary Basis Set <=

  Basis Set: (STO-3G AUX)
    Blend: DEF2-SVP-JKFIT
    Number of shells: 86
    Number of basis function: 262
    Number of Cartesian functions: 306
    Spherical Harmonics?: true
    Max angular momentum: 4

  Minimum eigenvalue in the overlap matrix is 2.4902476447E-01.
  Using Symmetric Orthogonalization.

  SCF Guess: Superposition of Atomic Densities via on-the-fly atomic UHF.

  ==> Iterations <==

                           Total Energy        Delta E     RMS |[F,P]|

   @DF-RHF iter SAD:  -109.17187536361541   -1.09172e+02   0.00000e+00 
   @DF-RHF iter   1:  -110.85868685651613   -1.68681e+00   1.47404e-02 DIIS
   @DF-RHF iter   2:  -110.89833834745508   -3.96515e-02   2.79577e-03 DIIS
   @DF-RHF iter   3:  -110.89952567303696   -1.18733e-03   5.76810e-04 DIIS
   @DF-RHF iter   4:  -110.89959659941408   -7.09264e-05   6.16741e-06 DIIS
   @DF-RHF iter   5:  -110.89959661335578   -1.39417e-08   1.19982e-06 DIIS
   @DF-RHF iter   6:  -110.89959661387140   -5.15612e-10   1.49399e-07 DIIS
  Energy and wave function converged.


  ==> Post-Iterations <==

    Orbital Energies [Eh]
    ---------------------

    Doubly Occupied:                                                      

       1A    -15.309488     2A    -15.302774     3A     -1.109192  
       4A     -1.102065     5A     -0.596255     6A     -0.593544  
       7A     -0.586607     8A     -0.584627     9A     -0.360547  
      10A     -0.353674  

    Virtual:                                                              

      11A      0.631414    12A      0.679403    13A      0.733311  
      14A      0.750523    15A      0.758755    16A      0.784199  

    Final Occupation by Irrep:
              A 
    DOCC [    10 ]

  @DF-RHF Final Energy:  -110.89959661387140

   => Energetics <=

    Nuclear Repulsion Energy =             38.1810274208381557
    One-Electron Energy =                -226.3637036476553419
    Two-Electron Energy =                  77.2830796129457980
    Total Energy =                       -110.8995966138713953

Computation Completed


Properties will be evaluated at   0.000000,   0.000000,   0.000000 [a0]

Properties computed using the SCF density matrix

  Nuclear Dipole Moment: [e a0]
     X:    17.1761      Y:   -26.0026      Z:    22.4736

  Electronic Dipole Moment: [e a0]
     X:   -16.3865      Y:    26.0088      Z:   -22.4669

  Dipole Moment: [e a0]
     X:     0.7896      Y:     0.0062      Z:     0.0067     Total:     0.7897

  Dipole Moment: [D]
     X:     2.0070      Y:     0.0158      Z:     0.0170     Total:     2.0072


*** tstop() called on Vanadium at Thu Sep 26 15:59:40 2019
Module time:
	user time   =       4.35 seconds =       0.07 minutes
	system time =       0.89 seconds =       0.01 minutes
	total time  =          2 seconds =       0.03 minutes
Total time:
	user time   =      29.53 seconds =       0.49 minutes
	system time =       7.11 seconds =       0.12 minutes
	total time  =         12 seconds =       0.20 minutes

       N-Body: Complex Energy (fragments = (1, 3), basis = (1, 3):  -110.89959661387140)

       N-Body: Computing complex (4/6) with fragments (1, 4) in the basis of fragments (1, 4).


*** tstart() called on Vanadium
*** at Thu Sep 26 15:59:40 2019

   => Loading Basis Set <=

    Name: STO-3G
    Role: ORBITAL
    Keyword: BASIS
    atoms 1, 5     entry N          line    71 file /home/carlosborca/miniconda3/envs/CrystaLattE/share/psi4/basis/sto-3g.gbs 
    atoms 2-4, 6-8 entry H          line    19 file /home/carlosborca/miniconda3/envs/CrystaLattE/share/psi4/basis/sto-3g.gbs 


         ---------------------------------------------------------
                                   SCF
               by Justin Turney, Rob Parrish, Andy Simmonett
                          and Daniel G. A. Smith
                              RHF Reference
                        4 Threads,    476 MiB Core
         ---------------------------------------------------------

  ==> Geometry <==

    Molecular point group: c1
    Full point group: C1

    Geometry (in Bohr), charge = 0, multiplicity = 1:

       Center              X                  Y                   Z               Mass       
    ------------   -----------------  -----------------  -----------------  -----------------
         N           -1.681155160000    -1.681155160000    -1.681155160000    14.003074004430
         H           -2.600263150000    -0.147368400000    -1.134342120000     1.007825032230
         H           -1.134342120000    -2.600263150000    -0.147368400000     1.007825032230
         H           -0.147368400000    -1.134342120000    -2.600263150000     1.007825032230
         N           -0.919107990000     3.928511960000     3.166464780000    14.003074004430
         H           -1.465921030000     4.847619940000     4.700251540000     1.007825032230
         H           -2.452894750000     3.381698920000     2.247356790000     1.007825032230
         H            0.000000000000     2.394725200000     3.713277820000     1.007825032230

  Running in c1 symmetry.

  Rotational constants: A =      0.81389  B =      0.11262  C =      0.10111 [cm^-1]
  Rotational constants: A =  24399.66655  B =   3376.30827  C =   3031.20899 [MHz]
  Nuclear repulsion =   38.181027420838163

  Charge       = 0
  Multiplicity = 1
  Electrons    = 20
  Nalpha       = 10
  Nbeta        = 10

  ==> Algorithm <==

  SCF Algorithm Type is DF.
  DIIS enabled.
  MOM disabled.
  Fractional occupation disabled.
  Guess Type is SAD.
  Energy threshold   = 1.00e-08
  Density threshold  = 1.00e-06
  Integral threshold = 0.00e+00

  ==> Primary Basis <==

  Basis Set: STO-3G
    Blend: STO-3G
    Number of shells: 12
    Number of basis function: 16
    Number of Cartesian functions: 16
    Spherical Harmonics?: true
    Max angular momentum: 1

   => Loading Basis Set <=

    Name: (STO-3G AUX)
    Role: JKFIT
    Keyword: DF_BASIS_SCF
    atoms 1, 5     entry N          line   263 file /home/carlosborca/miniconda3/envs/CrystaLattE/share/psi4/basis/def2-svp-jkfit.gbs 
    atoms 2-4, 6-8 entry H          line    23 file /home/carlosborca/miniconda3/envs/CrystaLattE/share/psi4/basis/def2-svp-jkfit.gbs 

  ==> Pre-Iterations <==

   -------------------------------------------------------
    Irrep   Nso     Nmo     Nalpha   Nbeta   Ndocc  Nsocc
   -------------------------------------------------------
     A         16      16       0       0       0       0
   -------------------------------------------------------
    Total      16      16      10      10      10       0
   -------------------------------------------------------

  ==> Integral Setup <==

  DFHelper Memory: AOs need 0.001 GiB; user supplied 0.349 GiB. Using in-core AOs.

  ==> MemDFJK: Density-Fitted J/K Matrices <==

    J tasked:                   Yes
    K tasked:                   Yes
    wK tasked:                   No
    OpenMP threads:               4
    Memory [MiB]:               357
    Algorithm:                 Core
    Schwarz Cutoff:           1E-12
    Mask sparsity (%):       0.7812
    Fitting Condition:        1E-10

   => Auxiliary Basis Set <=

  Basis Set: (STO-3G AUX)
    Blend: DEF2-SVP-JKFIT
    Number of shells: 86
    Number of basis function: 262
    Number of Cartesian functions: 306
    Spherical Harmonics?: true
    Max angular momentum: 4

  Minimum eigenvalue in the overlap matrix is 2.4902476447E-01.
  Using Symmetric Orthogonalization.

  SCF Guess: Superposition of Atomic Densities via on-the-fly atomic UHF.

  ==> Iterations <==

                           Total Energy        Delta E     RMS |[F,P]|

   @DF-RHF iter SAD:  -109.17187536360754   -1.09172e+02   0.00000e+00 
   @DF-RHF iter   1:  -110.85868685650851   -1.68681e+00   1.47404e-02 DIIS
   @DF-RHF iter   2:  -110.89833834744756   -3.96515e-02   2.79577e-03 DIIS
   @DF-RHF iter   3:  -110.89952567302944   -1.18733e-03   5.76810e-04 DIIS
   @DF-RHF iter   4:  -110.89959659940638   -7.09264e-05   6.16741e-06 DIIS
   @DF-RHF iter   5:  -110.89959661334801   -1.39416e-08   1.19982e-06 DIIS
   @DF-RHF iter   6:  -110.89959661386375   -5.15740e-10   1.49399e-07 DIIS
  Energy and wave function converged.


  ==> Post-Iterations <==

    Orbital Energies [Eh]
    ---------------------

    Doubly Occupied:                                                      

       1A    -15.309488     2A    -15.302774     3A     -1.109192  
       4A     -1.102065     5A     -0.596255     6A     -0.593544  
       7A     -0.586607     8A     -0.584627     9A     -0.360547  
      10A     -0.353674  

    Virtual:                                                              

      11A      0.631414    12A      0.679403    13A      0.733311  
      14A      0.750523    15A      0.758755    16A      0.784199  

    Final Occupation by Irrep:
              A 
    DOCC [    10 ]

  @DF-RHF Final Energy:  -110.89959661386375

   => Energetics <=

    Nuclear Repulsion Energy =             38.1810274208381628
    One-Electron Energy =                -226.3637036476426090
    Two-Electron Energy =                  77.2830796129407105
    Total Energy =                       -110.8995966138637499

Computation Completed


Properties will be evaluated at   0.000000,   0.000000,   0.000000 [a0]

Properties computed using the SCF density matrix

  Nuclear Dipole Moment: [e a0]
     X:   -26.0026      Y:    22.4736      Z:    17.1761

  Electronic Dipole Moment: [e a0]
     X:    26.0088      Y:   -22.4669      Z:   -16.3865

  Dipole Moment: [e a0]
     X:     0.0062      Y:     0.0067      Z:     0.7896     Total:     0.7897

  Dipole Moment: [D]
     X:     0.0158      Y:     0.0170      Z:     2.0070     Total:     2.0072


*** tstop() called on Vanadium at Thu Sep 26 15:59:41 2019
Module time:
	user time   =       4.47 seconds =       0.07 minutes
	system time =       0.81 seconds =       0.01 minutes
	total time  =          1 seconds =       0.02 minutes
Total time:
	user time   =      34.06 seconds =       0.57 minutes
	system time =       7.92 seconds =       0.13 minutes
	total time  =         13 seconds =       0.22 minutes

       N-Body: Complex Energy (fragments = (1, 4), basis = (1, 4):  -110.89959661386375)

       N-Body: Computing complex (5/6) with fragments (2, 3) in the basis of fragments (2, 3).


*** tstart() called on Vanadium
*** at Thu Sep 26 15:59:41 2019

   => Loading Basis Set <=

    Name: STO-3G
    Role: ORBITAL
    Keyword: BASIS
    atoms 1, 5     entry N          line    71 file /home/carlosborca/miniconda3/envs/CrystaLattE/share/psi4/basis/sto-3g.gbs 
    atoms 2-4, 6-8 entry H          line    19 file /home/carlosborca/miniconda3/envs/CrystaLattE/share/psi4/basis/sto-3g.gbs 


         ---------------------------------------------------------
                                   SCF
               by Justin Turney, Rob Parrish, Andy Simmonett
                          and Daniel G. A. Smith
                              RHF Reference
                        4 Threads,    476 MiB Core
         ---------------------------------------------------------

  ==> Geometry <==

    Molecular point group: c1
    Full point group: C1

    Geometry (in Bohr), charge = 0, multiplicity = 1:

       Center              X                  Y                   Z               Mass       
    ------------   -----------------  -----------------  -----------------  -----------------
         N            3.928511960000     3.166464780000    -0.919107990000    14.003074004430
         H            2.394725200000     3.713277820000     0.000000000000     1.007825032230
         H            4.847619940000     4.700251540000    -1.465921030000     1.007825032230
         H            3.381698920000     2.247356790000    -2.452894750000     1.007825032230
         N            3.166464780000    -0.919107990000     3.928511960000    14.003074004430
         H            2.247356790000    -2.452894750000     3.381698920000     1.007825032230
         H            3.713277820000     0.000000000000     2.394725200000     1.007825032230
         H            4.700251540000    -1.465921030000     4.847619940000     1.007825032230

  Running in c1 symmetry.

  Rotational constants: A =      0.16367  B =      0.10842  C =      0.06599 [cm^-1]
  Rotational constants: A =   4906.84480  B =   3250.32793  C =   1978.44545 [MHz]
  Nuclear repulsion =   39.871673339264788

  Charge       = 0
  Multiplicity = 1
  Electrons    = 20
  Nalpha       = 10
  Nbeta        = 10

  ==> Algorithm <==

  SCF Algorithm Type is DF.
  DIIS enabled.
  MOM disabled.
  Fractional occupation disabled.
  Guess Type is SAD.
  Energy threshold   = 1.00e-08
  Density threshold  = 1.00e-06
  Integral threshold = 0.00e+00

  ==> Primary Basis <==

  Basis Set: STO-3G
    Blend: STO-3G
    Number of shells: 12
    Number of basis function: 16
    Number of Cartesian functions: 16
    Spherical Harmonics?: true
    Max angular momentum: 1

   => Loading Basis Set <=

    Name: (STO-3G AUX)
    Role: JKFIT
    Keyword: DF_BASIS_SCF
    atoms 1, 5     entry N          line   263 file /home/carlosborca/miniconda3/envs/CrystaLattE/share/psi4/basis/def2-svp-jkfit.gbs 
    atoms 2-4, 6-8 entry H          line    23 file /home/carlosborca/miniconda3/envs/CrystaLattE/share/psi4/basis/def2-svp-jkfit.gbs 

  ==> Pre-Iterations <==

   -------------------------------------------------------
    Irrep   Nso     Nmo     Nalpha   Nbeta   Ndocc  Nsocc
   -------------------------------------------------------
     A         16      16       0       0       0       0
   -------------------------------------------------------
    Total      16      16      10      10      10       0
   -------------------------------------------------------

  ==> Integral Setup <==

  DFHelper Memory: AOs need 0.001 GiB; user supplied 0.349 GiB. Using in-core AOs.

  ==> MemDFJK: Density-Fitted J/K Matrices <==

    J tasked:                   Yes
    K tasked:                   Yes
    wK tasked:                   No
    OpenMP threads:               4
    Memory [MiB]:               357
    Algorithm:                 Core
    Schwarz Cutoff:           1E-12
    Mask sparsity (%):       0.7812
    Fitting Condition:        1E-10

   => Auxiliary Basis Set <=

  Basis Set: (STO-3G AUX)
    Blend: DEF2-SVP-JKFIT
    Number of shells: 86
    Number of basis function: 262
    Number of Cartesian functions: 306
    Spherical Harmonics?: true
    Max angular momentum: 4

  Minimum eigenvalue in the overlap matrix is 2.5147679852E-01.
  Using Symmetric Orthogonalization.

  SCF Guess: Superposition of Atomic Densities via on-the-fly atomic UHF.

  ==> Iterations <==

                           Total Energy        Delta E     RMS |[F,P]|

   @DF-RHF iter SAD:  -109.17478620710324   -1.09175e+02   0.00000e+00 
   @DF-RHF iter   1:  -110.86430507035649   -1.68952e+00   1.42847e-02 DIIS
   @DF-RHF iter   2:  -110.90202608323828   -3.77210e-02   2.68562e-03 DIIS
   @DF-RHF iter   3:  -110.90314768846940   -1.12161e-03   5.60194e-04 DIIS
   @DF-RHF iter   4:  -110.90321505433056   -6.73659e-05   9.43708e-06 DIIS
   @DF-RHF iter   5:  -110.90321507673700   -2.24064e-08   2.04330e-06 DIIS
   @DF-RHF iter   6:  -110.90321507802167   -1.28468e-09   4.96358e-07 DIIS
  Energy and wave function converged.


  ==> Post-Iterations <==

    Orbital Energies [Eh]
    ---------------------

    Doubly Occupied:                                                      

       1A    -15.307362     2A    -15.278926     3A     -1.106965  
       4A     -1.081661     5A     -0.594002     6A     -0.591404  
       7A     -0.568124     8A     -0.562387     9A     -0.360429  
      10A     -0.334239  

    Virtual:                                                              

      11A      0.649044    12A      0.693581    13A      0.750709  
      14A      0.754015    15A      0.776083    16A      0.795954  

    Final Occupation by Irrep:
              A 
    DOCC [    10 ]

  @DF-RHF Final Energy:  -110.90321507802167

   => Energetics <=

    Nuclear Repulsion Energy =             39.8716733392647882
    One-Electron Energy =                -229.9787849097642720
    Two-Electron Energy =                  79.2038964924778099
    Total Energy =                       -110.9032150780216739

Computation Completed


Properties will be evaluated at   0.000000,   0.000000,   0.000000 [a0]

Properties computed using the SCF density matrix

  Nuclear Dipole Moment: [e a0]
     X:    70.9498      Y:    22.4736      Z:    27.7711

  Electronic Dipole Moment: [e a0]
     X:   -70.9411      Y:   -22.4141      Z:   -28.6080

  Dipole Moment: [e a0]
     X:     0.0087      Y:     0.0594      Z:    -0.8369     Total:     0.8390

  Dipole Moment: [D]
     X:     0.0221      Y:     0.1511      Z:    -2.1272     Total:     2.1326


*** tstop() called on Vanadium at Thu Sep 26 15:59:43 2019
Module time:
	user time   =       4.72 seconds =       0.08 minutes
	system time =       0.67 seconds =       0.01 minutes
	total time  =          2 seconds =       0.03 minutes
Total time:
	user time   =      38.90 seconds =       0.65 minutes
	system time =       8.59 seconds =       0.14 minutes
	total time  =         15 seconds =       0.25 minutes

       N-Body: Complex Energy (fragments = (2, 3), basis = (2, 3):  -110.90321507802167)

       N-Body: Computing complex (6/6) with fragments (3, 4) in the basis of fragments (3, 4).


*** tstart() called on Vanadium
*** at Thu Sep 26 15:59:43 2019

   => Loading Basis Set <=

    Name: STO-3G
    Role: ORBITAL
    Keyword: BASIS
    atoms 1, 5     entry N          line    71 file /home/carlosborca/miniconda3/envs/CrystaLattE/share/psi4/basis/sto-3g.gbs 
    atoms 2-4, 6-8 entry H          line    19 file /home/carlosborca/miniconda3/envs/CrystaLattE/share/psi4/basis/sto-3g.gbs 


         ---------------------------------------------------------
                                   SCF
               by Justin Turney, Rob Parrish, Andy Simmonett
                          and Daniel G. A. Smith
                              RHF Reference
                        4 Threads,    476 MiB Core
         ---------------------------------------------------------

  ==> Geometry <==

    Molecular point group: c1
    Full point group: C1

    Geometry (in Bohr), charge = 0, multiplicity = 1:

       Center              X                  Y                   Z               Mass       
    ------------   -----------------  -----------------  -----------------  -----------------
         N            3.166464780000    -0.919107990000     3.928511960000    14.003074004430
         H            2.247356790000    -2.452894750000     3.381698920000     1.007825032230
         H            3.713277820000     0.000000000000     2.394725200000     1.007825032230
         H            4.700251540000    -1.465921030000     4.847619940000     1.007825032230
         N           -0.919107990000     3.928511960000     3.166464780000    14.003074004430
         H           -1.465921030000     4.847619940000     4.700251540000     1.007825032230
         H           -2.452894750000     3.381698920000     2.247356790000     1.007825032230
         H            0.000000000000     2.394725200000     3.713277820000     1.007825032230

  Running in c1 symmetry.

  Rotational constants: A =      0.16367  B =      0.10842  C =      0.06599 [cm^-1]
  Rotational constants: A =   4906.84480  B =   3250.32793  C =   1978.44545 [MHz]
  Nuclear repulsion =   39.871673339264781

  Charge       = 0
  Multiplicity = 1
  Electrons    = 20
  Nalpha       = 10
  Nbeta        = 10

  ==> Algorithm <==

  SCF Algorithm Type is DF.
  DIIS enabled.
  MOM disabled.
  Fractional occupation disabled.
  Guess Type is SAD.
  Energy threshold   = 1.00e-08
  Density threshold  = 1.00e-06
  Integral threshold = 0.00e+00

  ==> Primary Basis <==

  Basis Set: STO-3G
    Blend: STO-3G
    Number of shells: 12
    Number of basis function: 16
    Number of Cartesian functions: 16
    Spherical Harmonics?: true
    Max angular momentum: 1

   => Loading Basis Set <=

    Name: (STO-3G AUX)
    Role: JKFIT
    Keyword: DF_BASIS_SCF
    atoms 1, 5     entry N          line   263 file /home/carlosborca/miniconda3/envs/CrystaLattE/share/psi4/basis/def2-svp-jkfit.gbs 
    atoms 2-4, 6-8 entry H          line    23 file /home/carlosborca/miniconda3/envs/CrystaLattE/share/psi4/basis/def2-svp-jkfit.gbs 

  ==> Pre-Iterations <==

   -------------------------------------------------------
    Irrep   Nso     Nmo     Nalpha   Nbeta   Ndocc  Nsocc
   -------------------------------------------------------
     A         16      16       0       0       0       0
   -------------------------------------------------------
    Total      16      16      10      10      10       0
   -------------------------------------------------------

  ==> Integral Setup <==

  DFHelper Memory: AOs need 0.001 GiB; user supplied 0.349 GiB. Using in-core AOs.

  ==> MemDFJK: Density-Fitted J/K Matrices <==

    J tasked:                   Yes
    K tasked:                   Yes
    wK tasked:                   No
    OpenMP threads:               4
    Memory [MiB]:               357
    Algorithm:                 Core
    Schwarz Cutoff:           1E-12
    Mask sparsity (%):       0.7812
    Fitting Condition:        1E-10

   => Auxiliary Basis Set <=

  Basis Set: (STO-3G AUX)
    Blend: DEF2-SVP-JKFIT
    Number of shells: 86
    Number of basis function: 262
    Number of Cartesian functions: 306
    Spherical Harmonics?: true
    Max angular momentum: 4

  Minimum eigenvalue in the overlap matrix is 2.5147679852E-01.
  Using Symmetric Orthogonalization.

  SCF Guess: Superposition of Atomic Densities via on-the-fly atomic UHF.

  ==> Iterations <==

                           Total Energy        Delta E     RMS |[F,P]|

   @DF-RHF iter SAD:  -109.17478620709622   -1.09175e+02   0.00000e+00 
   @DF-RHF iter   1:  -110.86430507034942   -1.68952e+00   1.42847e-02 DIIS
   @DF-RHF iter   2:  -110.90202608323108   -3.77210e-02   2.68562e-03 DIIS
   @DF-RHF iter   3:  -110.90314768846224   -1.12161e-03   5.60194e-04 DIIS
   @DF-RHF iter   4:  -110.90321505432327   -6.73659e-05   9.43708e-06 DIIS
   @DF-RHF iter   5:  -110.90321507672971   -2.24064e-08   2.04330e-06 DIIS
   @DF-RHF iter   6:  -110.90321507801448   -1.28477e-09   4.96358e-07 DIIS
  Energy and wave function converged.


  ==> Post-Iterations <==

    Orbital Energies [Eh]
    ---------------------

    Doubly Occupied:                                                      

       1A    -15.307362     2A    -15.278926     3A     -1.106965  
       4A     -1.081661     5A     -0.594002     6A     -0.591404  
       7A     -0.568124     8A     -0.562387     9A     -0.360429  
      10A     -0.334239  

    Virtual:                                                              

      11A      0.649044    12A      0.693581    13A      0.750709  
      14A      0.754015    15A      0.776083    16A      0.795954  

    Final Occupation by Irrep:
              A 
    DOCC [    10 ]

  @DF-RHF Final Energy:  -110.90321507801448

   => Energetics <=

    Nuclear Repulsion Energy =             39.8716733392647811
    One-Electron Energy =                -229.9787849097437800
    Two-Electron Energy =                  79.2038964924645086
    Total Energy =                       -110.9032150780144832

Computation Completed


Properties will be evaluated at   0.000000,   0.000000,   0.000000 [a0]

Properties computed using the SCF density matrix

  Nuclear Dipole Moment: [e a0]
     X:    22.4736      Y:    27.7711      Z:    70.9498

  Electronic Dipole Moment: [e a0]
     X:   -22.4141      Y:   -28.6080      Z:   -70.9411

  Dipole Moment: [e a0]
     X:     0.0594      Y:    -0.8369      Z:     0.0087     Total:     0.8390

  Dipole Moment: [D]
     X:     0.1511      Y:    -2.1272      Z:     0.0221     Total:     2.1326


*** tstop() called on Vanadium at Thu Sep 26 15:59:45 2019
Module time:
	user time   =       4.33 seconds =       0.07 minutes
	system time =       0.95 seconds =       0.02 minutes
	total time  =          2 seconds =       0.03 minutes
Total time:
	user time   =      43.31 seconds =       0.72 minutes
	system time =       9.59 seconds =       0.16 minutes
	total time  =         17 seconds =       0.28 minutes

       N-Body: Complex Energy (fragments = (3, 4), basis = (3, 4):  -110.90321507801448)

   ==> N-Body: Now computing 3-body complexes <==


       N-Body: Computing complex (1/4) with fragments (2, 3, 4) in the basis of fragments (2, 3, 4).


*** tstart() called on Vanadium
*** at Thu Sep 26 15:59:45 2019

   => Loading Basis Set <=

    Name: STO-3G
    Role: ORBITAL
    Keyword: BASIS
    atoms 1, 5, 9         entry N          line    71 file /home/carlosborca/miniconda3/envs/CrystaLattE/share/psi4/basis/sto-3g.gbs 
    atoms 2-4, 6-8, 10-12 entry H          line    19 file /home/carlosborca/miniconda3/envs/CrystaLattE/share/psi4/basis/sto-3g.gbs 


         ---------------------------------------------------------
                                   SCF
               by Justin Turney, Rob Parrish, Andy Simmonett
                          and Daniel G. A. Smith
                              RHF Reference
                        4 Threads,    476 MiB Core
         ---------------------------------------------------------

  ==> Geometry <==

    Molecular point group: c1
    Full point group: C1

    Geometry (in Bohr), charge = 0, multiplicity = 1:

       Center              X                  Y                   Z               Mass       
    ------------   -----------------  -----------------  -----------------  -----------------
         N            3.928511960000     3.166464780000    -0.919107990000    14.003074004430
         H            2.394725200000     3.713277820000     0.000000000000     1.007825032230
         H            4.847619940000     4.700251540000    -1.465921030000     1.007825032230
         H            3.381698920000     2.247356790000    -2.452894750000     1.007825032230
         N            3.166464780000    -0.919107990000     3.928511960000    14.003074004430
         H            2.247356790000    -2.452894750000     3.381698920000     1.007825032230
         H            3.713277820000     0.000000000000     2.394725200000     1.007825032230
         H            4.700251540000    -1.465921030000     4.847619940000     1.007825032230
         N           -0.919107990000     3.928511960000     3.166464780000    14.003074004430
         H           -1.465921030000     4.847619940000     4.700251540000     1.007825032230
         H           -2.452894750000     3.381698920000     2.247356790000     1.007825032230
         H            0.000000000000     2.394725200000     3.713277820000     1.007825032230

  Running in c1 symmetry.

  Rotational constants: A =      0.08261  B =      0.05948  C =      0.05948 [cm^-1]
  Rotational constants: A =   2476.50001  B =   1783.22627  C =   1783.22627 [MHz]
  Nuclear repulsion =   82.945146415240984

  Charge       = 0
  Multiplicity = 1
  Electrons    = 30
  Nalpha       = 15
  Nbeta        = 15

  ==> Algorithm <==

  SCF Algorithm Type is DF.
  DIIS enabled.
  MOM disabled.
  Fractional occupation disabled.
  Guess Type is SAD.
  Energy threshold   = 1.00e-08
  Density threshold  = 1.00e-06
  Integral threshold = 0.00e+00

  ==> Primary Basis <==

  Basis Set: STO-3G
    Blend: STO-3G
    Number of shells: 18
    Number of basis function: 24
    Number of Cartesian functions: 24
    Spherical Harmonics?: true
    Max angular momentum: 1

   => Loading Basis Set <=

    Name: (STO-3G AUX)
    Role: JKFIT
    Keyword: DF_BASIS_SCF
    atoms 1, 5, 9         entry N          line   263 file /home/carlosborca/miniconda3/envs/CrystaLattE/share/psi4/basis/def2-svp-jkfit.gbs 
    atoms 2-4, 6-8, 10-12 entry H          line    23 file /home/carlosborca/miniconda3/envs/CrystaLattE/share/psi4/basis/def2-svp-jkfit.gbs 

  ==> Pre-Iterations <==

   -------------------------------------------------------
    Irrep   Nso     Nmo     Nalpha   Nbeta   Ndocc  Nsocc
   -------------------------------------------------------
     A         24      24       0       0       0       0
   -------------------------------------------------------
    Total      24      24      15      15      15       0
   -------------------------------------------------------

  ==> Integral Setup <==

  DFHelper Memory: AOs need 0.003 GiB; user supplied 0.349 GiB. Using in-core AOs.

  ==> MemDFJK: Density-Fitted J/K Matrices <==

    J tasked:                   Yes
    K tasked:                   Yes
    wK tasked:                   No
    OpenMP threads:               4
    Memory [MiB]:               357
    Algorithm:                 Core
    Schwarz Cutoff:           1E-12
    Mask sparsity (%):       1.0417
    Fitting Condition:        1E-10

   => Auxiliary Basis Set <=

  Basis Set: (STO-3G AUX)
    Blend: DEF2-SVP-JKFIT
    Number of shells: 129
    Number of basis function: 393
    Number of Cartesian functions: 459
    Spherical Harmonics?: true
    Max angular momentum: 4

  Minimum eigenvalue in the overlap matrix is 2.5116175298E-01.
  Using Symmetric Orthogonalization.

  SCF Guess: Superposition of Atomic Densities via on-the-fly atomic UHF.

  ==> Iterations <==

                           Total Energy        Delta E     RMS |[F,P]|

   @DF-RHF iter SAD:  -163.76748470119045   -1.63767e+02   0.00000e+00 
   @DF-RHF iter   1:  -166.30479357280294   -2.53731e+00   1.13295e-02 DIIS
   @DF-RHF iter   2:  -166.35870103885054   -5.39075e-02   2.12060e-03 DIIS
   @DF-RHF iter   3:  -166.36030936172159   -1.60832e-03   4.44508e-04 DIIS
   @DF-RHF iter   4:  -166.36040568502716   -9.63233e-05   1.07010e-05 DIIS
   @DF-RHF iter   5:  -166.36040575063416   -6.56070e-08   1.18007e-06 DIIS
   @DF-RHF iter   6:  -166.36040575159939   -9.65230e-10   3.01665e-07 DIIS
  Energy and wave function converged.


  ==> Post-Iterations <==

    Orbital Energies [Eh]
    ---------------------

    Doubly Occupied:                                                      

       1A    -15.286293     2A    -15.286203     3A    -15.286203  
       4A     -1.093822     5A     -1.086638     6A     -1.086638  
       7A     -0.590007     8A     -0.576321     9A     -0.576321  
      10A     -0.575236    11A     -0.562337    12A     -0.562337  
      13A     -0.347451    14A     -0.347451    15A     -0.336342  

    Virtual:                                                              

      16A      0.646988    17A      0.692419    18A      0.692419  
      19A      0.764472    20A      0.764472    21A      0.764818  
      22A      0.792977    23A      0.793447    24A      0.793447  

    Final Occupation by Irrep:
              A 
    DOCC [    15 ]

  @DF-RHF Final Energy:  -166.36040575159939

   => Energetics <=

    Nuclear Repulsion Energy =             82.9451464152409841
    One-Electron Energy =                -391.4119009817933943
    Two-Electron Energy =                 142.1063488149530372
    Total Energy =                       -166.3604057515993873

Computation Completed


Properties will be evaluated at   0.000000,   0.000000,   0.000000 [a0]

Properties computed using the SCF density matrix

  Nuclear Dipole Moment: [e a0]
     X:    60.5972      Y:    60.5972      Z:    60.5972

  Electronic Dipole Moment: [e a0]
     X:   -60.9707      Y:   -60.9707      Z:   -60.9707

  Dipole Moment: [e a0]
     X:    -0.3735      Y:    -0.3735      Z:    -0.3735     Total:     0.6470

  Dipole Moment: [D]
     X:    -0.9494      Y:    -0.9494      Z:    -0.9494     Total:     1.6445


*** tstop() called on Vanadium at Thu Sep 26 15:59:48 2019
Module time:
	user time   =       6.09 seconds =       0.10 minutes
	system time =       1.30 seconds =       0.02 minutes
	total time  =          3 seconds =       0.05 minutes
Total time:
	user time   =      49.43 seconds =       0.82 minutes
	system time =      10.92 seconds =       0.18 minutes
	total time  =         20 seconds =       0.33 minutes

       N-Body: Complex Energy (fragments = (2, 3, 4), basis = (2, 3, 4):  -166.36040575159939)

       N-Body: Computing complex (2/4) with fragments (1, 3, 4) in the basis of fragments (1, 3, 4).


*** tstart() called on Vanadium
[...]

  ==> Iterations <==

                           Total Energy        Delta E     RMS |[F,P]|

   @DF-RHF iter SAD:  -163.76166572888690   -1.63762e+02   0.00000e+00 
   @DF-RHF iter   1:  -166.29296352172787   -2.53130e+00   1.18135e-02 DIIS
   @DF-RHF iter   2:  -166.35066840236198   -5.77049e-02   2.23147e-03 DIIS
   @DF-RHF iter   3:  -166.35239486789911   -1.72647e-03   4.63664e-04 DIIS
   @DF-RHF iter   4:  -166.35249851478125   -1.03647e-04   7.25503e-06 DIIS
   @DF-RHF iter   5:  -166.35249854577086   -3.09896e-08   1.86236e-06 DIIS
   @DF-RHF iter   6:  -166.35249854837110   -2.60025e-09   4.31670e-07 DIIS
  Energy and wave function converged.


  ==> Post-Iterations <==

    Orbital Energies [Eh]
    ---------------------

    Doubly Occupied:                                                      

       1A    -15.316237     2A    -15.305068     3A    -15.287948  
       4A     -1.115956     5A     -1.104387     6A     -1.090622  
       7A     -0.603324     8A     -0.601739     9A     -0.590270  
      10A     -0.587862    11A     -0.575659    12A     -0.571315  
      13A     -0.369083    14A     -0.355797    15A     -0.342971  

    Virtual:                                                              

      16A      0.616437    17A      0.665920    18A      0.684654  
      19A      0.731460    20A      0.744099    21A      0.748612  
      22A      0.776743    23A      0.781813    24A      0.796029  

    Final Occupation by Irrep:
              A 
    DOCC [    15 ]

  @DF-RHF Final Energy:  -166.35249854837110

   => Energetics <=

    Nuclear Repulsion Energy =             79.5638545896473772
    One-Electron Energy =                -384.1962374561414322
    Two-Electron Energy =                 138.2798843181229245
    Total Energy =                       -166.3524985483711021

Computation Completed


Properties will be evaluated at   0.000000,   0.000000,   0.000000 [a0]

Properties computed using the SCF density matrix

  Nuclear Dipole Moment: [e a0]
     X:    55.2997      Y:     6.8235      Z:    12.1210

  Electronic Dipole Moment: [e a0]
     X:   -54.8894      Y:    -6.3638      Z:   -12.5493

  Dipole Moment: [e a0]
     X:     0.4103      Y:     0.4597      Z:    -0.4283     Total:     0.7504

  Dipole Moment: [D]
     X:     1.0428      Y:     1.1684      Z:    -1.0886     Total:     1.9073


*** tstop() called on Vanadium at Thu Sep 26 15:59:52 2019
Module time:
	user time   =       5.11 seconds =       0.09 minutes
	system time =       0.97 seconds =       0.02 minutes
	total time  =          2 seconds =       0.03 minutes
Total time:
	user time   =      59.40 seconds =       0.99 minutes
	system time =      13.11 seconds =       0.22 minutes
	total time  =         24 seconds =       0.40 minutes

       N-Body: Complex Energy (fragments = (1, 2, 3), basis = (1, 2, 3):  -166.35249854837110)

       N-Body: Computing complex (4/4) with fragments (1, 2, 4) in the basis of fragments (1, 2, 4).


*** tstart() called on Vanadium
*** at Thu Sep 26 15:59:52 2019

   => Loading Basis Set <=

    Name: STO-3G
    Role: ORBITAL
    Keyword: BASIS
    atoms 1, 5, 9         entry N          line    71 file /home/carlosborca/miniconda3/envs/CrystaLattE/share/psi4/basis/sto-3g.gbs 
    atoms 2-4, 6-8, 10-12 entry H          line    19 file /home/carlosborca/miniconda3/envs/CrystaLattE/share/psi4/basis/sto-3g.gbs 


         ---------------------------------------------------------
                                   SCF
               by Justin Turney, Rob Parrish, Andy Simmonett
                          and Daniel G. A. Smith
                              RHF Reference
                        4 Threads,    476 MiB Core
         ---------------------------------------------------------

  ==> Geometry <==

    Molecular point group: c1
    Full point group: C1

    Geometry (in Bohr), charge = 0, multiplicity = 1:

       Center              X                  Y                   Z               Mass       
    ------------   -----------------  -----------------  -----------------  -----------------
         N           -1.681155160000    -1.681155160000    -1.681155160000    14.003074004430
         H           -2.600263150000    -0.147368400000    -1.134342120000     1.007825032230
         H           -1.134342120000    -2.600263150000    -0.147368400000     1.007825032230
         H           -0.147368400000    -1.134342120000    -2.600263150000     1.007825032230
         N            3.928511960000     3.166464780000    -0.919107990000    14.003074004430
         H            2.394725200000     3.713277820000     0.000000000000     1.007825032230
         H            4.847619940000     4.700251540000    -1.465921030000     1.007825032230
         H            3.381698920000     2.247356790000    -2.452894750000     1.007825032230
         N           -0.919107990000     3.928511960000     3.166464780000    14.003074004430
         H           -1.465921030000     4.847619940000     4.700251540000     1.007825032230
         H           -2.452894750000     3.381698920000     2.247356790000     1.007825032230
         H            0.000000000000     2.394725200000     3.713277820000     1.007825032230

  Running in c1 symmetry.

  Rotational constants: A =      0.15032  B =      0.08677  C =      0.05860 [cm^-1]
  Rotational constants: A =   4506.36640  B =   2601.36363  C =   1756.85865 [MHz]
  Nuclear repulsion =   79.563854589647420

  Charge       = 0
  Multiplicity = 1
  Electrons    = 30
  Nalpha       = 15
  Nbeta        = 15

  ==> Algorithm <==

  SCF Algorithm Type is DF.
  DIIS enabled.
  MOM disabled.
  Fractional occupation disabled.
  Guess Type is SAD.
  Energy threshold   = 1.00e-08
  Density threshold  = 1.00e-06
  Integral threshold = 0.00e+00

  ==> Primary Basis <==

  Basis Set: STO-3G
    Blend: STO-3G
    Number of shells: 18
    Number of basis function: 24
    Number of Cartesian functions: 24
    Spherical Harmonics?: true
    Max angular momentum: 1

   => Loading Basis Set <=

    Name: (STO-3G AUX)
    Role: JKFIT
    Keyword: DF_BASIS_SCF
    atoms 1, 5, 9         entry N          line   263 file /home/carlosborca/miniconda3/envs/CrystaLattE/share/psi4/basis/def2-svp-jkfit.gbs 
    atoms 2-4, 6-8, 10-12 entry H          line    23 file /home/carlosborca/miniconda3/envs/CrystaLattE/share/psi4/basis/def2-svp-jkfit.gbs 

  ==> Pre-Iterations <==

   -------------------------------------------------------
    Irrep   Nso     Nmo     Nalpha   Nbeta   Ndocc  Nsocc
   -------------------------------------------------------
     A         24      24       0       0       0       0
   -------------------------------------------------------
    Total      24      24      15      15      15       0
   -------------------------------------------------------

  ==> Integral Setup <==

  DFHelper Memory: AOs need 0.003 GiB; user supplied 0.349 GiB. Using in-core AOs.

  ==> MemDFJK: Density-Fitted J/K Matrices <==

    J tasked:                   Yes
    K tasked:                   Yes
    wK tasked:                   No
    OpenMP threads:               4
    Memory [MiB]:               357
    Algorithm:                 Core
    Schwarz Cutoff:           1E-12
    Mask sparsity (%):       1.0417
    Fitting Condition:        1E-10

   => Auxiliary Basis Set <=

  Basis Set: (STO-3G AUX)
    Blend: DEF2-SVP-JKFIT
    Number of shells: 129
    Number of basis function: 393
    Number of Cartesian functions: 459
    Spherical Harmonics?: true
    Max angular momentum: 4

  Minimum eigenvalue in the overlap matrix is 2.4778092073E-01.
  Using Symmetric Orthogonalization.

  SCF Guess: Superposition of Atomic Densities via on-the-fly atomic UHF.

  ==> Iterations <==

                           Total Energy        Delta E     RMS |[F,P]|

   @DF-RHF iter SAD:  -163.76166572879313   -1.63762e+02   0.00000e+00 
   @DF-RHF iter   1:  -166.29296352163558   -2.53130e+00   1.18135e-02 DIIS
   @DF-RHF iter   2:  -166.35066840226938   -5.77049e-02   2.23147e-03 DIIS
   @DF-RHF iter   3:  -166.35239486780677   -1.72647e-03   4.63664e-04 DIIS
   @DF-RHF iter   4:  -166.35249851468865   -1.03647e-04   7.25503e-06 DIIS
   @DF-RHF iter   5:  -166.35249854567834   -3.09897e-08   1.86236e-06 DIIS
   @DF-RHF iter   6:  -166.35249854827831   -2.59996e-09   4.31670e-07 DIIS
  Energy and wave function converged.


  ==> Post-Iterations <==

    Orbital Energies [Eh]
    ---------------------

    Doubly Occupied:                                                      

       1A    -15.316237     2A    -15.305068     3A    -15.287948  
       4A     -1.115956     5A     -1.104387     6A     -1.090622  
       7A     -0.603324     8A     -0.601739     9A     -0.590270  
      10A     -0.587862    11A     -0.575659    12A     -0.571315  
      13A     -0.369083    14A     -0.355797    15A     -0.342971  

    Virtual:                                                              

      16A      0.616437    17A      0.665920    18A      0.684654  
      19A      0.731460    20A      0.744099    21A      0.748612  
      22A      0.776743    23A      0.781813    24A      0.796029  

    Final Occupation by Irrep:
              A 
    DOCC [    15 ]

  @DF-RHF Final Energy:  -166.35249854827831

   => Energetics <=

    Nuclear Repulsion Energy =             79.5638545896474199
    One-Electron Energy =                -384.1962374561105662
    Two-Electron Energy =                 138.2798843181848554
    Total Energy =                       -166.3524985482783052

Computation Completed


Properties will be evaluated at   0.000000,   0.000000,   0.000000 [a0]

Properties computed using the SCF density matrix

  Nuclear Dipole Moment: [e a0]
     X:    12.1210      Y:    55.2997      Z:     6.8235

  Electronic Dipole Moment: [e a0]
     X:   -12.5493      Y:   -54.8894      Z:    -6.3638

  Dipole Moment: [e a0]
     X:    -0.4283      Y:     0.4103      Z:     0.4597     Total:     0.7504

  Dipole Moment: [D]
     X:    -1.0886      Y:     1.0428      Z:     1.1684     Total:     1.9073


*** tstop() called on Vanadium at Thu Sep 26 15:59:54 2019
Module time:
	user time   =       4.79 seconds =       0.08 minutes
	system time =       0.99 seconds =       0.02 minutes
	total time  =          2 seconds =       0.03 minutes
Total time:
	user time   =      64.22 seconds =       1.07 minutes
	system time =      14.11 seconds =       0.24 minutes
	total time  =         26 seconds =       0.43 minutes

       N-Body: Complex Energy (fragments = (1, 2, 4), basis = (1, 2, 4):  -166.35249854827831)

   ==> N-Body: Now computing 4-body complexes <==


       N-Body: Computing complex (1/1) with fragments (1, 2, 3, 4) in the basis of fragments (1, 2, 3, 4).


*** tstart() called on Vanadium
*** at Thu Sep 26 15:59:54 2019

   => Loading Basis Set <=

    Name: STO-3G
    Role: ORBITAL
    Keyword: BASIS
    atoms 1, 5, 9, 13            entry N          line    71 file /home/carlosborca/miniconda3/envs/CrystaLattE/share/psi4/basis/sto-3g.gbs 
    atoms 2-4, 6-8, 10-12, 14-16 entry H          line    19 file /home/carlosborca/miniconda3/envs/CrystaLattE/share/psi4/basis/sto-3g.gbs 


         ---------------------------------------------------------
                                   SCF
               by Justin Turney, Rob Parrish, Andy Simmonett
                          and Daniel G. A. Smith
                              RHF Reference
                        4 Threads,    476 MiB Core
         ---------------------------------------------------------

  ==> Geometry <==

    Molecular point group: c1
    Full point group: C1

    Geometry (in Bohr), charge = 0, multiplicity = 1:

       Center              X                  Y                   Z               Mass       
    ------------   -----------------  -----------------  -----------------  -----------------
         N           -1.681155160000    -1.681155160000    -1.681155160000    14.003074004430
         H           -2.600263150000    -0.147368400000    -1.134342120000     1.007825032230
         H           -1.134342120000    -2.600263150000    -0.147368400000     1.007825032230
         H           -0.147368400000    -1.134342120000    -2.600263150000     1.007825032230
         N            3.928511960000     3.166464780000    -0.919107990000    14.003074004430
         H            2.394725200000     3.713277820000     0.000000000000     1.007825032230
         H            4.847619940000     4.700251540000    -1.465921030000     1.007825032230
         H            3.381698920000     2.247356790000    -2.452894750000     1.007825032230
         N            3.166464780000    -0.919107990000     3.928511960000    14.003074004430
         H            2.247356790000    -2.452894750000     3.381698920000     1.007825032230
         H            3.713277820000     0.000000000000     2.394725200000     1.007825032230
         H            4.700251540000    -1.465921030000     4.847619940000     1.007825032230
         N           -0.919107990000     3.928511960000     3.166464780000    14.003074004430
         H           -1.465921030000     4.847619940000     4.700251540000     1.007825032230
         H           -2.452894750000     3.381698920000     2.247356790000     1.007825032230
         H            0.000000000000     2.394725200000     3.713277820000     1.007825032230

  Running in c1 symmetry.

  Rotational constants: A =      0.08158  B =      0.05232  C =      0.05232 [cm^-1]
  Rotational constants: A =   2445.58813  B =   1568.53766  C =   1568.53766 [MHz]
  Nuclear repulsion =  136.371772696019093

  Charge       = 0
  Multiplicity = 1
  Electrons    = 40
  Nalpha       = 20
  Nbeta        = 20

  ==> Algorithm <==

  SCF Algorithm Type is DF.
  DIIS enabled.
  MOM disabled.
  Fractional occupation disabled.
  Guess Type is SAD.
  Energy threshold   = 1.00e-08
  Density threshold  = 1.00e-06
  Integral threshold = 0.00e+00

  ==> Primary Basis <==

  Basis Set: STO-3G
    Blend: STO-3G
    Number of shells: 24
    Number of basis function: 32
    Number of Cartesian functions: 32
    Spherical Harmonics?: true
    Max angular momentum: 1

   => Loading Basis Set <=

    Name: (STO-3G AUX)
    Role: JKFIT
    Keyword: DF_BASIS_SCF
    atoms 1, 5, 9, 13            entry N          line   263 file /home/carlosborca/miniconda3/envs/CrystaLattE/share/psi4/basis/def2-svp-jkfit.gbs 
    atoms 2-4, 6-8, 10-12, 14-16 entry H          line    23 file /home/carlosborca/miniconda3/envs/CrystaLattE/share/psi4/basis/def2-svp-jkfit.gbs 

  ==> Pre-Iterations <==

   -------------------------------------------------------
    Irrep   Nso     Nmo     Nalpha   Nbeta   Ndocc  Nsocc
   -------------------------------------------------------
     A         32      32       0       0       0       0
   -------------------------------------------------------
    Total      32      32      20      20      20       0
   -------------------------------------------------------

  ==> Integral Setup <==

  DFHelper Memory: AOs need 0.006 GiB; user supplied 0.349 GiB. Using in-core AOs.

  ==> MemDFJK: Density-Fitted J/K Matrices <==

    J tasked:                   Yes
    K tasked:                   Yes
    wK tasked:                   No
    OpenMP threads:               4
    Memory [MiB]:               357
    Algorithm:                 Core
    Schwarz Cutoff:           1E-12
    Mask sparsity (%):       1.1719
    Fitting Condition:        1E-10

   => Auxiliary Basis Set <=

  Basis Set: (STO-3G AUX)
    Blend: DEF2-SVP-JKFIT
    Number of shells: 172
    Number of basis function: 524
    Number of Cartesian functions: 612
    Spherical Harmonics?: true
    Max angular momentum: 4

  Minimum eigenvalue in the overlap matrix is 2.4683580449E-01.
  Using Symmetric Orthogonalization.

  SCF Guess: Superposition of Atomic Densities via on-the-fly atomic UHF.

  ==> Iterations <==

                           Total Energy        Delta E     RMS |[F,P]|

   @DF-RHF iter SAD:  -218.35499426021963   -2.18355e+02   0.00000e+00 
   @DF-RHF iter   1:  -221.73300266703359   -3.37801e+00   9.99372e-03 DIIS
   @DF-RHF iter   2:  -221.80697028752837   -7.39676e-02   1.88196e-03 DIIS
   @DF-RHF iter   3:  -221.80919157941631   -2.22129e-03   3.93373e-04 DIIS
   @DF-RHF iter   4:  -221.80932523003412   -1.33651e-04   8.64049e-06 DIIS
   @DF-RHF iter   5:  -221.80932530492078   -7.48867e-08   1.72015e-06 DIIS
   @DF-RHF iter   6:  -221.80932530830307   -3.38230e-09   3.95195e-07 DIIS
  Energy and wave function converged.


  ==> Post-Iterations <==

    Orbital Energies [Eh]
    ---------------------

    Doubly Occupied:                                                      

       1A    -15.307364     2A    -15.295209     3A    -15.295118  
       4A    -15.295118     5A     -1.107371     6A     -1.102084  
       7A     -1.095542     8A     -1.095542     9A     -0.598824  
      10A     -0.594857    11A     -0.594857    12A     -0.584481  
      13A     -0.581978    14A     -0.581978    15A     -0.571087  
      16A     -0.571087    17A     -0.357920    18A     -0.356120  
      19A     -0.356120    20A     -0.344876  

    Virtual:                                                              

      21A      0.608943    22A      0.671646    23A      0.671646  
      24A      0.679762    25A      0.739792    26A      0.739792  
      27A      0.768805    28A      0.774300    29A      0.774300  
      30A      0.784352    31A      0.795174    32A      0.795174  

    Final Occupation by Irrep:
              A 
    DOCC [    20 ]

  @DF-RHF Final Energy:  -221.80932530830307

   => Energetics <=

    Nuclear Repulsion Energy =            136.3717726960190930
    One-Electron Energy =                -572.9871397400145270
    Two-Electron Energy =                 214.8060417356923608
    Total Energy =                       -221.8093253083030731

Computation Completed


Properties will be evaluated at   0.000000,   0.000000,   0.000000 [a0]

Properties computed using the SCF density matrix

  Nuclear Dipole Moment: [e a0]
     X:    44.9471      Y:    44.9471      Z:    44.9471

  Electronic Dipole Moment: [e a0]
     X:   -44.9128      Y:   -44.9128      Z:   -44.9128

  Dipole Moment: [e a0]
     X:     0.0344      Y:     0.0344      Z:     0.0344     Total:     0.0595

  Dipole Moment: [D]
     X:     0.0873      Y:     0.0873      Z:     0.0873     Total:     0.1512


*** tstop() called on Vanadium at Thu Sep 26 15:59:57 2019
Module time:
	user time   =       6.78 seconds =       0.11 minutes
	system time =       1.46 seconds =       0.02 minutes
	total time  =          3 seconds =       0.05 minutes
Total time:
	user time   =      71.04 seconds =       1.18 minutes
	system time =      15.58 seconds =       0.26 minutes
	total time  =         29 seconds =       0.48 minutes

       N-Body: Complex Energy (fragments = (1, 2, 3, 4), basis = (1, 2, 3, 4):  -221.80932530830307)

   ==> N-Body: Non-Counterpoise Corrected (NoCP) energies <==

   n-Body     Total Energy [Eh]       I.E. [kcal/mol]      Delta [kcal/mol]
        1     -221.799861436848        0.000000000000        0.000000000000
        2     -221.808712201987       -5.553938975341       -5.553938975341
        3     -221.809327757701       -5.940206017499       -0.386267042159
        4     -221.809325308303       -5.938668996918        0.001537020582

   => Loading Basis Set <=

    Name: DEF2-SVP
    Role: ORBITAL
    Keyword: BASIS
    atoms 1, 5, 9, 13            entry N          line   110 file /home/carlosborca/miniconda3/envs/CrystaLattE/share/psi4/basis/def2-svp.gbs 
    atoms 2-4, 6-8, 10-12, 14-16 entry H          line    15 file /home/carlosborca/miniconda3/envs/CrystaLattE/share/psi4/basis/def2-svp.gbs 


    Psi4 stopped on: Thursday, 26 September 2019 03:59PM
    Psi4 wall time for execution: 0:00:29.62

*** Psi4 exiting successfully. Buy a developer a beer!
