
    -----------------------------------------------------------------------
          Psi4: An Open-Source Ab Initio Electronic Structure Package
                               Psi4 1.4a2.dev37 

                         Git: Rev {master} a6305a1 


    R. M. Parrish, L. A. Burns, D. G. A. Smith, A. C. Simmonett,
    A. E. DePrince III, E. G. Hohenstein, U. Bozkaya, A. Yu. Sokolov,
    R. Di Remigio, R. M. Richard, J. F. Gonthier, A. M. James,
    H. R. McAlexander, A. Kumar, M. Saitow, X. Wang, B. P. Pritchard,
    P. Verma, H. F. Schaefer III, K. Patkowski, R. A. King, E. F. Valeev,
    F. A. Evangelista, J. M. Turney, T. D. Crawford, and C. D. Sherrill,
    J. Chem. Theory Comput. 13(7) pp 3185--3197 (2017).
    (doi: 10.1021/acs.jctc.7b00174)


                         Additional Contributions by
    P. Kraus, H. Kruse, M. H. Lechner, M. C. Schieber, R. A. Shaw,
    A. Alenaizan, R. Galvelis, Z. L. Glick, S. Lehtola, and J. P. Misiewicz

    -----------------------------------------------------------------------


    Psi4 started on: Thursday, 26 September 2019 11:49AM

    Process ID: 218
    Host:       Vanadium
    PSIDATADIR: /home/carlosborca/miniconda3/envs/CrystaLattE/share/psi4
    Memory:     500.0 MiB
    Threads:    8
    
  ==> Input File <==

--------------------------------------------------------------------------
# PSI4 file produced by CrystaLattE

# Psithon input for N-mer:      4mer-0+1+2+3
# Number of replicas:           1
# Priority index for input:     6.93744950e-13
# Minimum monomer separations:  2.428  2.428  2.428  2.588  2.588  2.588 
# COM priority index for input: 8.28921594e-16
# Minimum COM separations:      3.418  3.418  3.418  3.883  3.883  3.883 

memory 500 MB

molecule Tetramer_0_1_2_3 {
  N           -1.68115516      -1.68115516      -1.68115516 
  H           -2.60026315      -0.14736840      -1.13434212 
  H           -1.13434212      -2.60026315      -0.14736840 
  H           -0.14736840      -1.13434212      -2.60026315 
--
  N            3.92851196       3.16646478      -0.91910799 
  H            2.39472520       3.71327782       0.00000000 
  H            4.84761994       4.70025154      -1.46592103 
  H            3.38169892       2.24735679      -2.45289475 
--
  N            3.16646478      -0.91910799       3.92851196 
  H            2.24735679      -2.45289475       3.38169892 
  H            3.71327782       0.00000000       2.39472520 
  H            4.70025154      -1.46592103       4.84761994 
--
  N           -0.91910799       3.92851196       3.16646478 
  H           -1.46592103       4.84761994       4.70025154 
  H           -2.45289475       3.38169892       2.24735679 
  H            0.00000000       2.39472520       3.71327782 
units = au
no_com
no_reorient
}

set {
  e_convergence 8
  scf_type df
  mp2_type df
  cc_type df
  freeze_core true
}

energy('scf/STO-3G', bsse_type = 'cp')

--------------------------------------------------------------------------

  Memory set to 476.837 MiB by Python driver.


   ===> N-Body Interaction Abacus <===
        BSSE Treatment:                     cp
        Number of 1-body computations:     8
        Number of 2-body computations:     6
        Number of 3-body computations:     4
        Number of 4-body computations:     1

   ==> N-Body: Now computing 1-body complexes <==


       N-Body: Computing complex (1/8) with fragments (1,) in the basis of fragments (1,).


*** tstart() called on Vanadium
*** at Thu Sep 26 11:49:50 2019

   => Loading Basis Set <=

    Name: STO-3G
    Role: ORBITAL
    Keyword: BASIS
    atoms 1   entry N          line    71 file /home/carlosborca/miniconda3/envs/CrystaLattE/share/psi4/basis/sto-3g.gbs 
    atoms 2-4 entry H          line    19 file /home/carlosborca/miniconda3/envs/CrystaLattE/share/psi4/basis/sto-3g.gbs 


         ---------------------------------------------------------
                                   SCF
               by Justin Turney, Rob Parrish, Andy Simmonett
                          and Daniel G. A. Smith
                              RHF Reference
                        8 Threads,    476 MiB Core
         ---------------------------------------------------------

  ==> Geometry <==

    Molecular point group: c1
    Full point group: C1

    Geometry (in Bohr), charge = 0, multiplicity = 1:

       Center              X                  Y                   Z               Mass       
    ------------   -----------------  -----------------  -----------------  -----------------
         N           -1.681155160000    -1.681155160000    -1.681155160000    14.003074004430
         H           -2.600263150000    -0.147368400000    -1.134342120000     1.007825032230
         H           -1.134342120000    -2.600263150000    -0.147368400000     1.007825032230
         H           -0.147368400000    -1.134342120000    -2.600263150000     1.007825032230

  Running in c1 symmetry.

  Rotational constants: A =      6.53545  B =      0.43458  C =      0.43458 [cm^-1]
  Rotational constants: A = 195927.87342  B =  13028.43972  C =  13028.43972 [MHz]
  Nuclear repulsion =   12.223291189591457

  Charge       = 0
  Multiplicity = 1
  Electrons    = 10
  Nalpha       = 5
  Nbeta        = 5

  ==> Algorithm <==

  SCF Algorithm Type is DF.
  DIIS enabled.
  MOM disabled.
  Fractional occupation disabled.
  Guess Type is SAD.
  Energy threshold   = 1.00e-08
  Density threshold  = 1.00e-06
  Integral threshold = 0.00e+00

  ==> Primary Basis <==

  Basis Set: STO-3G
    Blend: STO-3G
    Number of shells: 6
    Number of basis function: 8
    Number of Cartesian functions: 8
    Spherical Harmonics?: true
    Max angular momentum: 1

   => Loading Basis Set <=

    Name: (STO-3G AUX)
    Role: JKFIT
    Keyword: DF_BASIS_SCF
    atoms 1   entry N          line   263 file /home/carlosborca/miniconda3/envs/CrystaLattE/share/psi4/basis/def2-svp-jkfit.gbs 
    atoms 2-4 entry H          line    23 file /home/carlosborca/miniconda3/envs/CrystaLattE/share/psi4/basis/def2-svp-jkfit.gbs 

  ==> Pre-Iterations <==

   -------------------------------------------------------
    Irrep   Nso     Nmo     Nalpha   Nbeta   Ndocc  Nsocc
   -------------------------------------------------------
     A          8       8       0       0       0       0
   -------------------------------------------------------
    Total       8       8       5       5       5       0
   -------------------------------------------------------

  ==> Integral Setup <==

  DFHelper Memory: AOs need 0.000 GiB; user supplied 0.349 GiB. Using in-core AOs.

  ==> MemDFJK: Density-Fitted J/K Matrices <==

    J tasked:                   Yes
    K tasked:                   Yes
    wK tasked:                   No
    OpenMP threads:               8
    Memory [MiB]:               357
    Algorithm:                 Core
    Schwarz Cutoff:           1E-12
    Mask sparsity (%):       0.0000
    Fitting Condition:        1E-10

   => Auxiliary Basis Set <=

  Basis Set: (STO-3G AUX)
    Blend: DEF2-SVP-JKFIT
    Number of shells: 43
    Number of basis function: 131
    Number of Cartesian functions: 153
    Spherical Harmonics?: true
    Max angular momentum: 4

  Minimum eigenvalue in the overlap matrix is 2.5446568092E-01.
  Using Symmetric Orthogonalization.

  SCF Guess: Superposition of Atomic Densities via on-the-fly atomic UHF.

  ==> Iterations <==

                           Total Energy        Delta E     RMS |[F,P]|

   @DF-RHF iter SAD:   -54.58562505887945   -5.45856e+01   0.00000e+00 
   @DF-RHF iter   1:   -55.42957380035034   -8.43949e-01   2.08005e-02 DIIS
   @DF-RHF iter   2:   -55.44933997592629   -1.97662e-02   3.93998e-03 DIIS
   @DF-RHF iter   3:   -55.44993006317269   -5.90087e-04   8.13904e-04 DIIS
   @DF-RHF iter   4:   -55.44996535349628   -3.52903e-05   7.59270e-06 DIIS
   @DF-RHF iter   5:   -55.44996535934588   -5.84960e-09   9.86692e-07 DIIS
  Energy and wave function converged.


  ==> Post-Iterations <==

    Orbital Energies [Eh]
    ---------------------

    Doubly Occupied:                                                      

       1A    -15.300501     2A     -1.100051     3A     -0.584614  
       4A     -0.584614     5A     -0.351735  

    Virtual:                                                              

       6A      0.663673     7A      0.759629     8A      0.759629  

    Final Occupation by Irrep:
              A 
    DOCC [     5 ]

  @DF-RHF Final Energy:   -55.44996535934588

   => Energetics <=

    Nuclear Repulsion Energy =             12.2232911895914569
    One-Electron Energy =                 -99.5034369941981254
    Two-Electron Energy =                  31.8301804452607797
    Total Energy =                        -55.4499653593458817

Computation Completed


Properties will be evaluated at   0.000000,   0.000000,   0.000000 [a0]

Properties computed using the SCF density matrix

  Nuclear Dipole Moment: [e a0]
     X:   -15.6501      Y:   -15.6501      Z:   -15.6501

  Electronic Dipole Moment: [e a0]
     X:    16.0450      Y:    16.0450      Z:    16.0450

  Dipole Moment: [e a0]
     X:     0.3949      Y:     0.3949      Z:     0.3949     Total:     0.6840

  Dipole Moment: [D]
     X:     1.0038      Y:     1.0038      Z:     1.0038     Total:     1.7386


*** tstop() called on Vanadium at Thu Sep 26 11:49:53 2019
Module time:
	user time   =      11.81 seconds =       0.20 minutes
	system time =       2.45 seconds =       0.04 minutes
	total time  =          3 seconds =       0.05 minutes
Total time:
	user time   =      11.81 seconds =       0.20 minutes
	system time =       2.45 seconds =       0.04 minutes
	total time  =          3 seconds =       0.05 minutes

       N-Body: Complex Energy (fragments = (1,), basis = (1,):   -55.44996535934588)

       N-Body: Computing complex (2/8) with fragments (3,) in the basis of fragments (3,).


*** tstart() called on Vanadium
*** at Thu Sep 26 11:49:53 2019

   => Loading Basis Set <=

    Name: STO-3G
    Role: ORBITAL
    Keyword: BASIS
    atoms 1   entry N          line    71 file /home/carlosborca/miniconda3/envs/CrystaLattE/share/psi4/basis/sto-3g.gbs 
    atoms 2-4 entry H          line    19 file /home/carlosborca/miniconda3/envs/CrystaLattE/share/psi4/basis/sto-3g.gbs 


         ---------------------------------------------------------
                                   SCF
               by Justin Turney, Rob Parrish, Andy Simmonett
                          and Daniel G. A. Smith
                              RHF Reference
                        8 Threads,    476 MiB Core
         ---------------------------------------------------------

  ==> Geometry <==

    Molecular point group: c1
    Full point group: C1

    Geometry (in Bohr), charge = 0, multiplicity = 1:

       Center              X                  Y                   Z               Mass       
    ------------   -----------------  -----------------  -----------------  -----------------
         N            3.166464780000    -0.919107990000     3.928511960000    14.003074004430
         H            2.247356790000    -2.452894750000     3.381698920000     1.007825032230
         H            3.713277820000     0.000000000000     2.394725200000     1.007825032230
         H            4.700251540000    -1.465921030000     4.847619940000     1.007825032230

  Running in c1 symmetry.

  Rotational constants: A =     10.50680  B =      0.13254  C =      0.13153 [cm^-1]
  Rotational constants: A = 314985.91418  B =   3973.38736  C =   3943.16163 [MHz]
  Nuclear repulsion =   12.223291200851136

  Charge       = 0
  Multiplicity = 1
  Electrons    = 10
  Nalpha       = 5
  Nbeta        = 5

  ==> Algorithm <==

  SCF Algorithm Type is DF.
  DIIS enabled.
  MOM disabled.
  Fractional occupation disabled.
  Guess Type is SAD.
  Energy threshold   = 1.00e-08
  Density threshold  = 1.00e-06
  Integral threshold = 0.00e+00

  ==> Primary Basis <==

  Basis Set: STO-3G
    Blend: STO-3G
    Number of shells: 6
    Number of basis function: 8
    Number of Cartesian functions: 8
    Spherical Harmonics?: true
    Max angular momentum: 1

   => Loading Basis Set <=

    Name: (STO-3G AUX)
    Role: JKFIT
    Keyword: DF_BASIS_SCF
    atoms 1   entry N          line   263 file /home/carlosborca/miniconda3/envs/CrystaLattE/share/psi4/basis/def2-svp-jkfit.gbs 
    atoms 2-4 entry H          line    23 file /home/carlosborca/miniconda3/envs/CrystaLattE/share/psi4/basis/def2-svp-jkfit.gbs 

  ==> Pre-Iterations <==

   -------------------------------------------------------
    Irrep   Nso     Nmo     Nalpha   Nbeta   Ndocc  Nsocc
   -------------------------------------------------------
     A          8       8       0       0       0       0
   -------------------------------------------------------
    Total       8       8       5       5       5       0
   -------------------------------------------------------

  ==> Integral Setup <==

  DFHelper Memory: AOs need 0.000 GiB; user supplied 0.349 GiB. Using in-core AOs.

  ==> MemDFJK: Density-Fitted J/K Matrices <==

    J tasked:                   Yes
    K tasked:                   Yes
    wK tasked:                   No
    OpenMP threads:               8
    Memory [MiB]:               357
    Algorithm:                 Core
    Schwarz Cutoff:           1E-12
    Mask sparsity (%):       0.0000
    Fitting Condition:        1E-10

   => Auxiliary Basis Set <=

  Basis Set: (STO-3G AUX)
    Blend: DEF2-SVP-JKFIT
    Number of shells: 43
    Number of basis function: 131
    Number of Cartesian functions: 153
    Spherical Harmonics?: true
    Max angular momentum: 4

  Minimum eigenvalue in the overlap matrix is 2.5446568031E-01.
  Using Symmetric Orthogonalization.

  SCF Guess: Superposition of Atomic Densities via on-the-fly atomic UHF.

  ==> Iterations <==

                           Total Energy        Delta E     RMS |[F,P]|

   @DF-RHF iter SAD:   -54.58562506171288   -5.45856e+01   0.00000e+00 
   @DF-RHF iter   1:   -55.42957380017286   -8.43949e-01   2.08005e-02 DIIS
   @DF-RHF iter   2:   -55.44933997575204   -1.97662e-02   3.93998e-03 DIIS
   @DF-RHF iter   3:   -55.44993006299704   -5.90087e-04   8.13904e-04 DIIS
   @DF-RHF iter   4:   -55.44996535332049   -3.52903e-05   7.59270e-06 DIIS
   @DF-RHF iter   5:   -55.44996535917009   -5.84960e-09   9.86692e-07 DIIS
  Energy and wave function converged.


  ==> Post-Iterations <==

    Orbital Energies [Eh]
    ---------------------

    Doubly Occupied:                                                      

       1A    -15.300501     2A     -1.100051     3A     -0.584614  
       4A     -0.584614     5A     -0.351735  

    Virtual:                                                              

       6A      0.663673     7A      0.759629     8A      0.759629  

    Final Occupation by Irrep:
              A 
    DOCC [     5 ]

  @DF-RHF Final Energy:   -55.44996535917009

   => Energetics <=

    Nuclear Repulsion Energy =             12.2232912008511363
    One-Electron Energy =                 -99.5034370119315668
    Two-Electron Energy =                  31.8301804519103371
    Total Energy =                        -55.4499653591700934

Computation Completed


Properties will be evaluated at   0.000000,   0.000000,   0.000000 [a0]

Properties computed using the SCF density matrix

  Nuclear Dipole Moment: [e a0]
     X:    32.8261      Y:   -10.3526      Z:    38.1236

  Electronic Dipole Moment: [e a0]
     X:   -32.4312      Y:     9.9577      Z:   -38.5185

  Dipole Moment: [e a0]
     X:     0.3949      Y:    -0.3949      Z:    -0.3949     Total:     0.6840

  Dipole Moment: [D]
     X:     1.0038      Y:    -1.0038      Z:    -1.0038     Total:     1.7386


*** tstop() called on Vanadium at Thu Sep 26 11:49:55 2019
Module time:
	user time   =       8.91 seconds =       0.15 minutes
	system time =       2.04 seconds =       0.03 minutes
	total time  =          2 seconds =       0.03 minutes
Total time:
	user time   =      20.94 seconds =       0.35 minutes
	system time =       4.53 seconds =       0.08 minutes
	total time  =          5 seconds =       0.08 minutes

       N-Body: Complex Energy (fragments = (3,), basis = (3,):   -55.44996535917009)

       N-Body: Computing complex (3/8) with fragments (2,) in the basis of fragments (2,).


*** tstart() called on Vanadium
*** at Thu Sep 26 11:49:55 2019

   => Loading Basis Set <=

    Name: STO-3G
    Role: ORBITAL
    Keyword: BASIS
    atoms 1   entry N          line    71 file /home/carlosborca/miniconda3/envs/CrystaLattE/share/psi4/basis/sto-3g.gbs 
    atoms 2-4 entry H          line    19 file /home/carlosborca/miniconda3/envs/CrystaLattE/share/psi4/basis/sto-3g.gbs 


         ---------------------------------------------------------
                                   SCF
               by Justin Turney, Rob Parrish, Andy Simmonett
                          and Daniel G. A. Smith
                              RHF Reference
                        8 Threads,    476 MiB Core
         ---------------------------------------------------------

  ==> Geometry <==

    Molecular point group: c1
    Full point group: C1

    Geometry (in Bohr), charge = 0, multiplicity = 1:

       Center              X                  Y                   Z               Mass       
    ------------   -----------------  -----------------  -----------------  -----------------
         N            3.928511960000     3.166464780000    -0.919107990000    14.003074004430
         H            2.394725200000     3.713277820000     0.000000000000     1.007825032230
         H            4.847619940000     4.700251540000    -1.465921030000     1.007825032230
         H            3.381698920000     2.247356790000    -2.452894750000     1.007825032230

  Running in c1 symmetry.

  Rotational constants: A =     10.50680  B =      0.13254  C =      0.13153 [cm^-1]
  Rotational constants: A = 314985.91418  B =   3973.38736  C =   3943.16163 [MHz]
  Nuclear repulsion =   12.223291200851136

  Charge       = 0
  Multiplicity = 1
  Electrons    = 10
  Nalpha       = 5
  Nbeta        = 5

  ==> Algorithm <==

  SCF Algorithm Type is DF.
  DIIS enabled.
  MOM disabled.
  Fractional occupation disabled.
  Guess Type is SAD.
  Energy threshold   = 1.00e-08
  Density threshold  = 1.00e-06
  Integral threshold = 0.00e+00

  ==> Primary Basis <==

  Basis Set: STO-3G
    Blend: STO-3G
    Number of shells: 6
    Number of basis function: 8
    Number of Cartesian functions: 8
    Spherical Harmonics?: true
    Max angular momentum: 1

   => Loading Basis Set <=

    Name: (STO-3G AUX)
    Role: JKFIT
    Keyword: DF_BASIS_SCF
    atoms 1   entry N          line   263 file /home/carlosborca/miniconda3/envs/CrystaLattE/share/psi4/basis/def2-svp-jkfit.gbs 
    atoms 2-4 entry H          line    23 file /home/carlosborca/miniconda3/envs/CrystaLattE/share/psi4/basis/def2-svp-jkfit.gbs 

  ==> Pre-Iterations <==

   -------------------------------------------------------
    Irrep   Nso     Nmo     Nalpha   Nbeta   Ndocc  Nsocc
   -------------------------------------------------------
     A          8       8       0       0       0       0
   -------------------------------------------------------
    Total       8       8       5       5       5       0
   -------------------------------------------------------

  ==> Integral Setup <==

  DFHelper Memory: AOs need 0.000 GiB; user supplied 0.349 GiB. Using in-core AOs.

  ==> MemDFJK: Density-Fitted J/K Matrices <==

    J tasked:                   Yes
    K tasked:                   Yes
    wK tasked:                   No
    OpenMP threads:               8
    Memory [MiB]:               357
    Algorithm:                 Core
    Schwarz Cutoff:           1E-12
    Mask sparsity (%):       0.0000
    Fitting Condition:        1E-10

   => Auxiliary Basis Set <=

  Basis Set: (STO-3G AUX)
    Blend: DEF2-SVP-JKFIT
    Number of shells: 43
    Number of basis function: 131
    Number of Cartesian functions: 153
    Spherical Harmonics?: true
    Max angular momentum: 4

  Minimum eigenvalue in the overlap matrix is 2.5446568031E-01.
  Using Symmetric Orthogonalization.

  SCF Guess: Superposition of Atomic Densities via on-the-fly atomic UHF.

  ==> Iterations <==

                           Total Energy        Delta E     RMS |[F,P]|

   @DF-RHF iter SAD:   -54.58562506171483   -5.45856e+01   0.00000e+00 
   @DF-RHF iter   1:   -55.42957380017459   -8.43949e-01   2.08005e-02 DIIS
   @DF-RHF iter   2:   -55.44933997575382   -1.97662e-02   3.93998e-03 DIIS
   @DF-RHF iter   3:   -55.44993006299883   -5.90087e-04   8.13904e-04 DIIS
   @DF-RHF iter   4:   -55.44996535332228   -3.52903e-05   7.59270e-06 DIIS
   @DF-RHF iter   5:   -55.44996535917186   -5.84957e-09   9.86692e-07 DIIS
  Energy and wave function converged.


  ==> Post-Iterations <==

    Orbital Energies [Eh]
    ---------------------

    Doubly Occupied:                                                      

       1A    -15.300501     2A     -1.100051     3A     -0.584614  
       4A     -0.584614     5A     -0.351735  

    Virtual:                                                              

       6A      0.663673     7A      0.759629     8A      0.759629  

    Final Occupation by Irrep:
              A 
    DOCC [     5 ]

  @DF-RHF Final Energy:   -55.44996535917186

   => Energetics <=

    Nuclear Repulsion Energy =             12.2232912008511363
    One-Electron Energy =                 -99.5034370119357021
    Two-Electron Energy =                  31.8301804519127103
    Total Energy =                        -55.4499653591718555

Computation Completed


Properties will be evaluated at   0.000000,   0.000000,   0.000000 [a0]

Properties computed using the SCF density matrix

  Nuclear Dipole Moment: [e a0]
     X:    38.1236      Y:    32.8261      Z:   -10.3526

  Electronic Dipole Moment: [e a0]
     X:   -38.5185      Y:   -32.4312      Z:     9.9577

  Dipole Moment: [e a0]
     X:    -0.3949      Y:     0.3949      Z:    -0.3949     Total:     0.6840

  Dipole Moment: [D]
     X:    -1.0038      Y:     1.0038      Z:    -1.0038     Total:     1.7386


*** tstop() called on Vanadium at Thu Sep 26 11:49:57 2019
Module time:
	user time   =       9.80 seconds =       0.16 minutes
	system time =       1.58 seconds =       0.03 minutes
	total time  =          2 seconds =       0.03 minutes
Total time:
	user time   =      30.95 seconds =       0.52 minutes
	system time =       6.14 seconds =       0.10 minutes
	total time  =          7 seconds =       0.12 minutes

       N-Body: Complex Energy (fragments = (2,), basis = (2,):   -55.44996535917186)

       N-Body: Computing complex (4/8) with fragments (3,) in the basis of fragments (1, 2, 3, 4).


*** tstart() called on Vanadium
*** at Thu Sep 26 11:49:57 2019

   => Loading Basis Set <=

    Name: STO-3G
    Role: ORBITAL
    Keyword: BASIS
    atoms 1, 5, 9, 13            entry N          line    71 file /home/carlosborca/miniconda3/envs/CrystaLattE/share/psi4/basis/sto-3g.gbs 
    atoms 2-4, 6-8, 10-12, 14-16 entry H          line    19 file /home/carlosborca/miniconda3/envs/CrystaLattE/share/psi4/basis/sto-3g.gbs 


         ---------------------------------------------------------
                                   SCF
               by Justin Turney, Rob Parrish, Andy Simmonett
                          and Daniel G. A. Smith
                              RHF Reference
                        8 Threads,    476 MiB Core
         ---------------------------------------------------------

  ==> Geometry <==

    Molecular point group: c1
    Full point group: C1

    Geometry (in Bohr), charge = 0, multiplicity = 1:

       Center              X                  Y                   Z               Mass       
    ------------   -----------------  -----------------  -----------------  -----------------
      Gh(N)          -1.681155160000    -1.681155160000    -1.681155160000    14.003074004430
      Gh(H)          -2.600263150000    -0.147368400000    -1.134342120000     1.007825032230
      Gh(H)          -1.134342120000    -2.600263150000    -0.147368400000     1.007825032230
      Gh(H)          -0.147368400000    -1.134342120000    -2.600263150000     1.007825032230
      Gh(N)           3.928511960000     3.166464780000    -0.919107990000    14.003074004430
      Gh(H)           2.394725200000     3.713277820000     0.000000000000     1.007825032230
      Gh(H)           4.847619940000     4.700251540000    -1.465921030000     1.007825032230
      Gh(H)           3.381698920000     2.247356790000    -2.452894750000     1.007825032230
         N            3.166464780000    -0.919107990000     3.928511960000    14.003074004430
         H            2.247356790000    -2.452894750000     3.381698920000     1.007825032230
         H            3.713277820000     0.000000000000     2.394725200000     1.007825032230
         H            4.700251540000    -1.465921030000     4.847619940000     1.007825032230
      Gh(N)          -0.919107990000     3.928511960000     3.166464780000    14.003074004430
      Gh(H)          -1.465921030000     4.847619940000     4.700251540000     1.007825032230
      Gh(H)          -2.452894750000     3.381698920000     2.247356790000     1.007825032230
      Gh(H)           0.000000000000     2.394725200000     3.713277820000     1.007825032230

  Running in c1 symmetry.

  Rotational constants: A =      0.08158  B =      0.05232  C =      0.05232 [cm^-1]
  Rotational constants: A =   2445.58813  B =   1568.53766  C =   1568.53766 [MHz]
  Nuclear repulsion =   12.223291200851136

  Charge       = 0
  Multiplicity = 1
  Electrons    = 10
  Nalpha       = 5
  Nbeta        = 5

  ==> Algorithm <==

  SCF Algorithm Type is DF.
  DIIS enabled.
  MOM disabled.
  Fractional occupation disabled.
  Guess Type is SAD.
  Energy threshold   = 1.00e-08
  Density threshold  = 1.00e-06
  Integral threshold = 0.00e+00

  ==> Primary Basis <==

  Basis Set: STO-3G
    Blend: STO-3G
    Number of shells: 24
    Number of basis function: 32
    Number of Cartesian functions: 32
    Spherical Harmonics?: true
    Max angular momentum: 1

   => Loading Basis Set <=

    Name: (STO-3G AUX)
    Role: JKFIT
    Keyword: DF_BASIS_SCF
    atoms 1, 5, 9, 13            entry N          line   263 file /home/carlosborca/miniconda3/envs/CrystaLattE/share/psi4/basis/def2-svp-jkfit.gbs 
    atoms 2-4, 6-8, 10-12, 14-16 entry H          line    23 file /home/carlosborca/miniconda3/envs/CrystaLattE/share/psi4/basis/def2-svp-jkfit.gbs 

  ==> Pre-Iterations <==

   -------------------------------------------------------
    Irrep   Nso     Nmo     Nalpha   Nbeta   Ndocc  Nsocc
   -------------------------------------------------------
     A         32      32       0       0       0       0
   -------------------------------------------------------
    Total      32      32       5       5       5       0
   -------------------------------------------------------

  ==> Integral Setup <==

  DFHelper Memory: AOs need 0.006 GiB; user supplied 0.349 GiB. Using in-core AOs.

  ==> MemDFJK: Density-Fitted J/K Matrices <==

    J tasked:                   Yes
    K tasked:                   Yes
    wK tasked:                   No
    OpenMP threads:               8
    Memory [MiB]:               357
    Algorithm:                 Core
    Schwarz Cutoff:           1E-12
    Mask sparsity (%):       1.1719
    Fitting Condition:        1E-10

   => Auxiliary Basis Set <=

  Basis Set: (STO-3G AUX)
    Blend: DEF2-SVP-JKFIT
    Number of shells: 172
    Number of basis function: 524
    Number of Cartesian functions: 612
    Spherical Harmonics?: true
    Max angular momentum: 4

  Minimum eigenvalue in the overlap matrix is 2.4683580449E-01.
  Using Symmetric Orthogonalization.

  SCF Guess: Superposition of Atomic Densities via on-the-fly atomic UHF.

  ==> Iterations <==

                           Total Energy        Delta E     RMS |[F,P]|

   @DF-RHF iter SAD:   -54.58562324087661   -5.45856e+01   0.00000e+00 
   @DF-RHF iter   1:   -55.43138770693744   -8.45764e-01   5.16181e-03 DIIS
   @DF-RHF iter   2:   -55.45082011517019   -1.94324e-02   1.00016e-03 DIIS
   @DF-RHF iter   3:   -55.45142767625023   -6.07561e-04   2.05635e-04 DIIS
   @DF-RHF iter   4:   -55.45146402090088   -3.63447e-05   2.67488e-06 DIIS
   @DF-RHF iter   5:   -55.45146402888444   -7.98356e-09   6.11975e-07 DIIS
  Energy and wave function converged.


  ==> Post-Iterations <==

    Orbital Energies [Eh]
    ---------------------

    Doubly Occupied:                                                      

       1A    -15.303191     2A     -1.101445     3A     -0.585974  
       4A     -0.585845     5A     -0.353290  

    Virtual:                                                              

       6A      0.411488     7A      0.435382     8A      0.453592  
       9A      0.662342    10A      0.755491    11A      0.758418  
      12A      0.911100    13A      0.930319    14A      0.938100  
      15A      0.968764    16A      0.984327    17A      1.001324  
      18A      1.316888    19A      1.334157    20A      1.387615  
      21A      2.176391    22A      2.215223    23A      2.266169  
      24A      2.675172    25A      2.684468    26A      2.693276  
      27A      2.720451    28A      2.744528    29A      2.755061  
      30A     23.903143    31A     23.911599    32A     23.941591  

    Final Occupation by Irrep:
              A 
    DOCC [     5 ]

  @DF-RHF Final Energy:   -55.45146402888444

   => Energetics <=

    Nuclear Repulsion Energy =             12.2232912008511363
    One-Electron Energy =                 -99.4900287358941569
    Two-Electron Energy =                  31.8152735061585830
    Total Energy =                        -55.4514640288844376

Computation Completed


Properties will be evaluated at   0.000000,   0.000000,   0.000000 [a0]

Properties computed using the SCF density matrix

  Nuclear Dipole Moment: [e a0]
     X:    32.8261      Y:   -10.3526      Z:    38.1236

  Electronic Dipole Moment: [e a0]
     X:   -32.4189      Y:     9.9451      Z:   -38.5164

  Dipole Moment: [e a0]
     X:     0.4072      Y:    -0.4074      Z:    -0.3928     Total:     0.6972

  Dipole Moment: [D]
     X:     1.0350      Y:    -1.0356      Z:    -0.9983     Total:     1.7721


*** tstop() called on Vanadium at Thu Sep 26 11:50:01 2019
Module time:
	user time   =      14.78 seconds =       0.25 minutes
	system time =       3.20 seconds =       0.05 minutes
	total time  =          4 seconds =       0.07 minutes
Total time:
	user time   =      45.97 seconds =       0.77 minutes
	system time =       9.36 seconds =       0.16 minutes
	total time  =         11 seconds =       0.18 minutes

       N-Body: Complex Energy (fragments = (3,), basis = (1, 2, 3, 4):   -55.45146402888444)

       N-Body: Computing complex (5/8) with fragments (2,) in the basis of fragments (1, 2, 3, 4).


*** tstart() called on Vanadium
*** at Thu Sep 26 11:50:01 2019

   => Loading Basis Set <=

    Name: STO-3G
    Role: ORBITAL
    Keyword: BASIS
    atoms 1, 5, 9, 13            entry N          line    71 file /home/carlosborca/miniconda3/envs/CrystaLattE/share/psi4/basis/sto-3g.gbs 
    atoms 2-4, 6-8, 10-12, 14-16 entry H          line    19 file /home/carlosborca/miniconda3/envs/CrystaLattE/share/psi4/basis/sto-3g.gbs 


         ---------------------------------------------------------
                                   SCF
               by Justin Turney, Rob Parrish, Andy Simmonett
                          and Daniel G. A. Smith
                              RHF Reference
                        8 Threads,    476 MiB Core
         ---------------------------------------------------------

  ==> Geometry <==

    Molecular point group: c1
    Full point group: C1

    Geometry (in Bohr), charge = 0, multiplicity = 1:

       Center              X                  Y                   Z               Mass       
    ------------   -----------------  -----------------  -----------------  -----------------
      Gh(N)          -1.681155160000    -1.681155160000    -1.681155160000    14.003074004430
      Gh(H)          -2.600263150000    -0.147368400000    -1.134342120000     1.007825032230
      Gh(H)          -1.134342120000    -2.600263150000    -0.147368400000     1.007825032230
      Gh(H)          -0.147368400000    -1.134342120000    -2.600263150000     1.007825032230
         N            3.928511960000     3.166464780000    -0.919107990000    14.003074004430
         H            2.394725200000     3.713277820000     0.000000000000     1.007825032230
         H            4.847619940000     4.700251540000    -1.465921030000     1.007825032230
         H            3.381698920000     2.247356790000    -2.452894750000     1.007825032230
      Gh(N)           3.166464780000    -0.919107990000     3.928511960000    14.003074004430
      Gh(H)           2.247356790000    -2.452894750000     3.381698920000     1.007825032230
      Gh(H)           3.713277820000     0.000000000000     2.394725200000     1.007825032230
      Gh(H)           4.700251540000    -1.465921030000     4.847619940000     1.007825032230
      Gh(N)          -0.919107990000     3.928511960000     3.166464780000    14.003074004430
      Gh(H)          -1.465921030000     4.847619940000     4.700251540000     1.007825032230
      Gh(H)          -2.452894750000     3.381698920000     2.247356790000     1.007825032230
      Gh(H)           0.000000000000     2.394725200000     3.713277820000     1.007825032230

  Running in c1 symmetry.

  Rotational constants: A =      0.08158  B =      0.05232  C =      0.05232 [cm^-1]
  Rotational constants: A =   2445.58813  B =   1568.53766  C =   1568.53766 [MHz]
  Nuclear repulsion =   12.223291200851136

  Charge       = 0
  Multiplicity = 1
  Electrons    = 10
  Nalpha       = 5
  Nbeta        = 5

  ==> Algorithm <==

  SCF Algorithm Type is DF.
  DIIS enabled.
  MOM disabled.
  Fractional occupation disabled.
  Guess Type is SAD.
  Energy threshold   = 1.00e-08
  Density threshold  = 1.00e-06
  Integral threshold = 0.00e+00

  ==> Primary Basis <==

  Basis Set: STO-3G
    Blend: STO-3G
    Number of shells: 24
    Number of basis function: 32
    Number of Cartesian functions: 32
    Spherical Harmonics?: true
    Max angular momentum: 1

   => Loading Basis Set <=

    Name: (STO-3G AUX)
    Role: JKFIT
    Keyword: DF_BASIS_SCF
    atoms 1, 5, 9, 13            entry N          line   263 file /home/carlosborca/miniconda3/envs/CrystaLattE/share/psi4/basis/def2-svp-jkfit.gbs 
    atoms 2-4, 6-8, 10-12, 14-16 entry H          line    23 file /home/carlosborca/miniconda3/envs/CrystaLattE/share/psi4/basis/def2-svp-jkfit.gbs 

  ==> Pre-Iterations <==

   -------------------------------------------------------
    Irrep   Nso     Nmo     Nalpha   Nbeta   Ndocc  Nsocc
   -------------------------------------------------------
     A         32      32       0       0       0       0
   -------------------------------------------------------
    Total      32      32       5       5       5       0
   -------------------------------------------------------

  ==> Integral Setup <==

  DFHelper Memory: AOs need 0.006 GiB; user supplied 0.349 GiB. Using in-core AOs.

  ==> MemDFJK: Density-Fitted J/K Matrices <==

    J tasked:                   Yes
    K tasked:                   Yes
    wK tasked:                   No
    OpenMP threads:               8
    Memory [MiB]:               357
    Algorithm:                 Core
    Schwarz Cutoff:           1E-12
    Mask sparsity (%):       1.1719
    Fitting Condition:        1E-10

   => Auxiliary Basis Set <=

  Basis Set: (STO-3G AUX)
    Blend: DEF2-SVP-JKFIT
    Number of shells: 172
    Number of basis function: 524
    Number of Cartesian functions: 612
    Spherical Harmonics?: true
    Max angular momentum: 4

  Minimum eigenvalue in the overlap matrix is 2.4683580449E-01.
  Using Symmetric Orthogonalization.

  SCF Guess: Superposition of Atomic Densities via on-the-fly atomic UHF.

  ==> Iterations <==

                           Total Energy        Delta E     RMS |[F,P]|

   @DF-RHF iter SAD:   -54.58562324091267   -5.45856e+01   0.00000e+00 
   @DF-RHF iter   1:   -55.43138770697445   -8.45764e-01   5.16181e-03 DIIS
   @DF-RHF iter   2:   -55.45082011520728   -1.94324e-02   1.00016e-03 DIIS
   @DF-RHF iter   3:   -55.45142767628725   -6.07561e-04   2.05635e-04 DIIS
   @DF-RHF iter   4:   -55.45146402093802   -3.63447e-05   2.67488e-06 DIIS
   @DF-RHF iter   5:   -55.45146402892145   -7.98343e-09   6.11975e-07 DIIS
  Energy and wave function converged.


  ==> Post-Iterations <==

    Orbital Energies [Eh]
    ---------------------

    Doubly Occupied:                                                      

       1A    -15.303191     2A     -1.101445     3A     -0.585974  
       4A     -0.585845     5A     -0.353290  

    Virtual:                                                              

       6A      0.411488     7A      0.435382     8A      0.453592  
       9A      0.662342    10A      0.755491    11A      0.758418  
      12A      0.911100    13A      0.930319    14A      0.938100  
      15A      0.968764    16A      0.984327    17A      1.001324  
      18A      1.316888    19A      1.334157    20A      1.387615  
      21A      2.176391    22A      2.215223    23A      2.266169  
      24A      2.675172    25A      2.684468    26A      2.693276  
      27A      2.720451    28A      2.744528    29A      2.755061  
      30A     23.903143    31A     23.911599    32A     23.941591  

    Final Occupation by Irrep:
              A 
    DOCC [     5 ]

  @DF-RHF Final Energy:   -55.45146402892145

   => Energetics <=

    Nuclear Repulsion Energy =             12.2232912008511363
    One-Electron Energy =                 -99.4900287359096751
    Two-Electron Energy =                  31.8152735061370890
    Total Energy =                        -55.4514640289214498

Computation Completed


Properties will be evaluated at   0.000000,   0.000000,   0.000000 [a0]

Properties computed using the SCF density matrix

  Nuclear Dipole Moment: [e a0]
     X:    38.1236      Y:    32.8261      Z:   -10.3526

  Electronic Dipole Moment: [e a0]
     X:   -38.5164      Y:   -32.4189      Z:     9.9451

  Dipole Moment: [e a0]
     X:    -0.3928      Y:     0.4072      Z:    -0.4074     Total:     0.6972

  Dipole Moment: [D]
     X:    -0.9983      Y:     1.0350      Z:    -1.0356     Total:     1.7721


*** tstop() called on Vanadium at Thu Sep 26 11:50:04 2019
Module time:
	user time   =      15.27 seconds =       0.25 minutes
	system time =       2.64 seconds =       0.04 minutes
	total time  =          3 seconds =       0.05 minutes
Total time:
	user time   =      61.44 seconds =       1.02 minutes
	system time =      12.05 seconds =       0.20 minutes
	total time  =         14 seconds =       0.23 minutes

       N-Body: Complex Energy (fragments = (2,), basis = (1, 2, 3, 4):   -55.45146402892145)

       N-Body: Computing complex (6/8) with fragments (4,) in the basis of fragments (1, 2, 3, 4).


*** tstart() called on Vanadium
*** at Thu Sep 26 11:50:04 2019

   => Loading Basis Set <=

    Name: STO-3G
    Role: ORBITAL
    Keyword: BASIS
    atoms 1, 5, 9, 13            entry N          line    71 file /home/carlosborca/miniconda3/envs/CrystaLattE/share/psi4/basis/sto-3g.gbs 
    atoms 2-4, 6-8, 10-12, 14-16 entry H          line    19 file /home/carlosborca/miniconda3/envs/CrystaLattE/share/psi4/basis/sto-3g.gbs 


         ---------------------------------------------------------
                                   SCF
               by Justin Turney, Rob Parrish, Andy Simmonett
                          and Daniel G. A. Smith
                              RHF Reference
                        8 Threads,    476 MiB Core
         ---------------------------------------------------------

  ==> Geometry <==

    Molecular point group: c1
    Full point group: C1

    Geometry (in Bohr), charge = 0, multiplicity = 1:

       Center              X                  Y                   Z               Mass       
    ------------   -----------------  -----------------  -----------------  -----------------
      Gh(N)          -1.681155160000    -1.681155160000    -1.681155160000    14.003074004430
      Gh(H)          -2.600263150000    -0.147368400000    -1.134342120000     1.007825032230
      Gh(H)          -1.134342120000    -2.600263150000    -0.147368400000     1.007825032230
      Gh(H)          -0.147368400000    -1.134342120000    -2.600263150000     1.007825032230
      Gh(N)           3.928511960000     3.166464780000    -0.919107990000    14.003074004430
      Gh(H)           2.394725200000     3.713277820000     0.000000000000     1.007825032230
      Gh(H)           4.847619940000     4.700251540000    -1.465921030000     1.007825032230
      Gh(H)           3.381698920000     2.247356790000    -2.452894750000     1.007825032230
      Gh(N)           3.166464780000    -0.919107990000     3.928511960000    14.003074004430
      Gh(H)           2.247356790000    -2.452894750000     3.381698920000     1.007825032230
      Gh(H)           3.713277820000     0.000000000000     2.394725200000     1.007825032230
      Gh(H)           4.700251540000    -1.465921030000     4.847619940000     1.007825032230
         N           -0.919107990000     3.928511960000     3.166464780000    14.003074004430
         H           -1.465921030000     4.847619940000     4.700251540000     1.007825032230
         H           -2.452894750000     3.381698920000     2.247356790000     1.007825032230
         H            0.000000000000     2.394725200000     3.713277820000     1.007825032230

  Running in c1 symmetry.

  Rotational constants: A =      0.08158  B =      0.05232  C =      0.05232 [cm^-1]
  Rotational constants: A =   2445.58813  B =   1568.53766  C =   1568.53766 [MHz]
  Nuclear repulsion =   12.223291200851138

  Charge       = 0
  Multiplicity = 1
  Electrons    = 10
  Nalpha       = 5
  Nbeta        = 5

  ==> Algorithm <==

  SCF Algorithm Type is DF.
  DIIS enabled.
  MOM disabled.
  Fractional occupation disabled.
  Guess Type is SAD.
  Energy threshold   = 1.00e-08
  Density threshold  = 1.00e-06
  Integral threshold = 0.00e+00

  ==> Primary Basis <==

  Basis Set: STO-3G
    Blend: STO-3G
    Number of shells: 24
    Number of basis function: 32
    Number of Cartesian functions: 32
    Spherical Harmonics?: true
    Max angular momentum: 1

   => Loading Basis Set <=

    Name: (STO-3G AUX)
    Role: JKFIT
    Keyword: DF_BASIS_SCF
    atoms 1, 5, 9, 13            entry N          line   263 file /home/carlosborca/miniconda3/envs/CrystaLattE/share/psi4/basis/def2-svp-jkfit.gbs 
    atoms 2-4, 6-8, 10-12, 14-16 entry H          line    23 file /home/carlosborca/miniconda3/envs/CrystaLattE/share/psi4/basis/def2-svp-jkfit.gbs 

  ==> Pre-Iterations <==

   -------------------------------------------------------
    Irrep   Nso     Nmo     Nalpha   Nbeta   Ndocc  Nsocc
   -------------------------------------------------------
     A         32      32       0       0       0       0
   -------------------------------------------------------
    Total      32      32       5       5       5       0
   -------------------------------------------------------

  ==> Integral Setup <==

  DFHelper Memory: AOs need 0.006 GiB; user supplied 0.349 GiB. Using in-core AOs.

  ==> MemDFJK: Density-Fitted J/K Matrices <==

    J tasked:                   Yes
    K tasked:                   Yes
    wK tasked:                   No
    OpenMP threads:               8
    Memory [MiB]:               357
    Algorithm:                 Core
    Schwarz Cutoff:           1E-12
    Mask sparsity (%):       1.1719
    Fitting Condition:        1E-10

   => Auxiliary Basis Set <=

  Basis Set: (STO-3G AUX)
    Blend: DEF2-SVP-JKFIT
    Number of shells: 172
    Number of basis function: 524
    Number of Cartesian functions: 612
    Spherical Harmonics?: true
    Max angular momentum: 4

  Minimum eigenvalue in the overlap matrix is 2.4683580449E-01.
  Using Symmetric Orthogonalization.

  SCF Guess: Superposition of Atomic Densities via on-the-fly atomic UHF.

  ==> Iterations <==

                           Total Energy        Delta E     RMS |[F,P]|

   @DF-RHF iter SAD:   -54.58562324087438   -5.45856e+01   0.00000e+00 
   @DF-RHF iter   1:   -55.43138770693498   -8.45764e-01   5.16181e-03 DIIS
   @DF-RHF iter   2:   -55.45082011516764   -1.94324e-02   1.00016e-03 DIIS
   @DF-RHF iter   3:   -55.45142767624760   -6.07561e-04   2.05635e-04 DIIS
   @DF-RHF iter   4:   -55.45146402089831   -3.63447e-05   2.67488e-06 DIIS
   @DF-RHF iter   5:   -55.45146402888177   -7.98346e-09   6.11975e-07 DIIS
  Energy and wave function converged.


  ==> Post-Iterations <==

    Orbital Energies [Eh]
    ---------------------

    Doubly Occupied:                                                      

       1A    -15.303191     2A     -1.101445     3A     -0.585974  
       4A     -0.585845     5A     -0.353290  

    Virtual:                                                              

       6A      0.411488     7A      0.435382     8A      0.453592  
       9A      0.662342    10A      0.755491    11A      0.758418  
      12A      0.911100    13A      0.930319    14A      0.938100  
      15A      0.968764    16A      0.984327    17A      1.001324  
      18A      1.316888    19A      1.334157    20A      1.387615  
      21A      2.176391    22A      2.215223    23A      2.266169  
      24A      2.675172    25A      2.684468    26A      2.693276  
      27A      2.720451    28A      2.744528    29A      2.755061  
      30A     23.903143    31A     23.911599    32A     23.941591  

    Final Occupation by Irrep:
              A 
    DOCC [     5 ]

  @DF-RHF Final Energy:   -55.45146402888177

   => Energetics <=

    Nuclear Repulsion Energy =             12.2232912008511381
    One-Electron Energy =                 -99.4900287358850051
    Two-Electron Energy =                  31.8152735061520993
    Total Energy =                        -55.4514640288817731

Computation Completed


Properties will be evaluated at   0.000000,   0.000000,   0.000000 [a0]

Properties computed using the SCF density matrix

  Nuclear Dipole Moment: [e a0]
     X:   -10.3526      Y:    38.1236      Z:    32.8261

  Electronic Dipole Moment: [e a0]
     X:     9.9451      Y:   -38.5164      Z:   -32.4189

  Dipole Moment: [e a0]
     X:    -0.4074      Y:    -0.3928      Z:     0.4072     Total:     0.6972

  Dipole Moment: [D]
     X:    -1.0356      Y:    -0.9983      Z:     1.0350     Total:     1.7721


*** tstop() called on Vanadium at Thu Sep 26 11:50:08 2019
Module time:
	user time   =      14.74 seconds =       0.25 minutes
	system time =       3.13 seconds =       0.05 minutes
	total time  =          4 seconds =       0.07 minutes
Total time:
	user time   =      76.36 seconds =       1.27 minutes
	system time =      15.24 seconds =       0.25 minutes
	total time  =         18 seconds =       0.30 minutes

       N-Body: Complex Energy (fragments = (4,), basis = (1, 2, 3, 4):   -55.45146402888177)

       N-Body: Computing complex (7/8) with fragments (4,) in the basis of fragments (4,).


*** tstart() called on Vanadium
*** at Thu Sep 26 11:50:08 2019

   => Loading Basis Set <=

    Name: STO-3G
    Role: ORBITAL
    Keyword: BASIS
    atoms 1   entry N          line    71 file /home/carlosborca/miniconda3/envs/CrystaLattE/share/psi4/basis/sto-3g.gbs 
    atoms 2-4 entry H          line    19 file /home/carlosborca/miniconda3/envs/CrystaLattE/share/psi4/basis/sto-3g.gbs 


         ---------------------------------------------------------
                                   SCF
               by Justin Turney, Rob Parrish, Andy Simmonett
                          and Daniel G. A. Smith
                              RHF Reference
                        8 Threads,    476 MiB Core
         ---------------------------------------------------------

  ==> Geometry <==

    Molecular point group: c1
    Full point group: C1

    Geometry (in Bohr), charge = 0, multiplicity = 1:

       Center              X                  Y                   Z               Mass       
    ------------   -----------------  -----------------  -----------------  -----------------
         N           -0.919107990000     3.928511960000     3.166464780000    14.003074004430
         H           -1.465921030000     4.847619940000     4.700251540000     1.007825032230
         H           -2.452894750000     3.381698920000     2.247356790000     1.007825032230
         H            0.000000000000     2.394725200000     3.713277820000     1.007825032230

  Running in c1 symmetry.

  Rotational constants: A =     10.50680  B =      0.13254  C =      0.13153 [cm^-1]
  Rotational constants: A = 314985.91418  B =   3973.38736  C =   3943.16163 [MHz]
  Nuclear repulsion =   12.223291200851138

  Charge       = 0
  Multiplicity = 1
  Electrons    = 10
  Nalpha       = 5
  Nbeta        = 5

  ==> Algorithm <==

  SCF Algorithm Type is DF.
  DIIS enabled.
  MOM disabled.
  Fractional occupation disabled.
  Guess Type is SAD.
  Energy threshold   = 1.00e-08
  Density threshold  = 1.00e-06
  Integral threshold = 0.00e+00

  ==> Primary Basis <==

  Basis Set: STO-3G
    Blend: STO-3G
    Number of shells: 6
    Number of basis function: 8
    Number of Cartesian functions: 8
    Spherical Harmonics?: true
    Max angular momentum: 1

   => Loading Basis Set <=

    Name: (STO-3G AUX)
    Role: JKFIT
    Keyword: DF_BASIS_SCF
    atoms 1   entry N          line   263 file /home/carlosborca/miniconda3/envs/CrystaLattE/share/psi4/basis/def2-svp-jkfit.gbs 
    atoms 2-4 entry H          line    23 file /home/carlosborca/miniconda3/envs/CrystaLattE/share/psi4/basis/def2-svp-jkfit.gbs 

  ==> Pre-Iterations <==

   -------------------------------------------------------
    Irrep   Nso     Nmo     Nalpha   Nbeta   Ndocc  Nsocc
   -------------------------------------------------------
     A          8       8       0       0       0       0
   -------------------------------------------------------
    Total       8       8       5       5       5       0
   -------------------------------------------------------

  ==> Integral Setup <==

  DFHelper Memory: AOs need 0.000 GiB; user supplied 0.349 GiB. Using in-core AOs.

  ==> MemDFJK: Density-Fitted J/K Matrices <==

    J tasked:                   Yes
    K tasked:                   Yes
    wK tasked:                   No
    OpenMP threads:               8
    Memory [MiB]:               357
    Algorithm:                 Core
    Schwarz Cutoff:           1E-12
    Mask sparsity (%):       0.0000
    Fitting Condition:        1E-10

   => Auxiliary Basis Set <=

  Basis Set: (STO-3G AUX)
    Blend: DEF2-SVP-JKFIT
    Number of shells: 43
    Number of basis function: 131
    Number of Cartesian functions: 153
    Spherical Harmonics?: true
    Max angular momentum: 4

  Minimum eigenvalue in the overlap matrix is 2.5446568031E-01.
  Using Symmetric Orthogonalization.

  SCF Guess: Superposition of Atomic Densities via on-the-fly atomic UHF.

  ==> Iterations <==

                           Total Energy        Delta E     RMS |[F,P]|

   @DF-RHF iter SAD:   -54.58562506170271   -5.45856e+01   0.00000e+00 
   @DF-RHF iter   1:   -55.42957380016243   -8.43949e-01   2.08005e-02 DIIS
   @DF-RHF iter   2:   -55.44933997574163   -1.97662e-02   3.93998e-03 DIIS
   @DF-RHF iter   3:   -55.44993006298665   -5.90087e-04   8.13904e-04 DIIS
   @DF-RHF iter   4:   -55.44996535331006   -3.52903e-05   7.59270e-06 DIIS
   @DF-RHF iter   5:   -55.44996535915970   -5.84964e-09   9.86692e-07 DIIS
  Energy and wave function converged.


  ==> Post-Iterations <==

    Orbital Energies [Eh]
    ---------------------

    Doubly Occupied:                                                      

       1A    -15.300501     2A     -1.100051     3A     -0.584614  
       4A     -0.584614     5A     -0.351735  

    Virtual:                                                              

       6A      0.663673     7A      0.759629     8A      0.759629  

    Final Occupation by Irrep:
              A 
    DOCC [     5 ]

  @DF-RHF Final Energy:   -55.44996535915970

   => Energetics <=

    Nuclear Repulsion Energy =             12.2232912008511381
    One-Electron Energy =                 -99.5034370119295772
    Two-Electron Energy =                  31.8301804519187428
    Total Energy =                        -55.4499653591596982

Computation Completed


Properties will be evaluated at   0.000000,   0.000000,   0.000000 [a0]

Properties computed using the SCF density matrix

  Nuclear Dipole Moment: [e a0]
     X:   -10.3526      Y:    38.1236      Z:    32.8261

  Electronic Dipole Moment: [e a0]
     X:     9.9577      Y:   -38.5185      Z:   -32.4312

  Dipole Moment: [e a0]
     X:    -0.3949      Y:    -0.3949      Z:     0.3949     Total:     0.6840

  Dipole Moment: [D]
     X:    -1.0038      Y:    -1.0038      Z:     1.0038     Total:     1.7386


*** tstop() called on Vanadium at Thu Sep 26 11:50:10 2019
Module time:
	user time   =       8.95 seconds =       0.15 minutes
	system time =       1.92 seconds =       0.03 minutes
	total time  =          2 seconds =       0.03 minutes
Total time:
	user time   =      85.48 seconds =       1.42 minutes
	system time =      17.20 seconds =       0.29 minutes
	total time  =         20 seconds =       0.33 minutes

       N-Body: Complex Energy (fragments = (4,), basis = (4,):   -55.44996535915970)

       N-Body: Computing complex (8/8) with fragments (1,) in the basis of fragments (1, 2, 3, 4).


*** tstart() called on Vanadium
*** at Thu Sep 26 11:50:10 2019

   => Loading Basis Set <=

    Name: STO-3G
    Role: ORBITAL
    Keyword: BASIS
    atoms 1, 5, 9, 13            entry N          line    71 file /home/carlosborca/miniconda3/envs/CrystaLattE/share/psi4/basis/sto-3g.gbs 
    atoms 2-4, 6-8, 10-12, 14-16 entry H          line    19 file /home/carlosborca/miniconda3/envs/CrystaLattE/share/psi4/basis/sto-3g.gbs 


         ---------------------------------------------------------
                                   SCF
               by Justin Turney, Rob Parrish, Andy Simmonett
                          and Daniel G. A. Smith
                              RHF Reference
                        8 Threads,    476 MiB Core
         ---------------------------------------------------------

  ==> Geometry <==

    Molecular point group: c1
    Full point group: C1

    Geometry (in Bohr), charge = 0, multiplicity = 1:

       Center              X                  Y                   Z               Mass       
    ------------   -----------------  -----------------  -----------------  -----------------
         N           -1.681155160000    -1.681155160000    -1.681155160000    14.003074004430
         H           -2.600263150000    -0.147368400000    -1.134342120000     1.007825032230
         H           -1.134342120000    -2.600263150000    -0.147368400000     1.007825032230
         H           -0.147368400000    -1.134342120000    -2.600263150000     1.007825032230
      Gh(N)           3.928511960000     3.166464780000    -0.919107990000    14.003074004430
      Gh(H)           2.394725200000     3.713277820000     0.000000000000     1.007825032230
      Gh(H)           4.847619940000     4.700251540000    -1.465921030000     1.007825032230
      Gh(H)           3.381698920000     2.247356790000    -2.452894750000     1.007825032230
      Gh(N)           3.166464780000    -0.919107990000     3.928511960000    14.003074004430
      Gh(H)           2.247356790000    -2.452894750000     3.381698920000     1.007825032230
      Gh(H)           3.713277820000     0.000000000000     2.394725200000     1.007825032230
      Gh(H)           4.700251540000    -1.465921030000     4.847619940000     1.007825032230
      Gh(N)          -0.919107990000     3.928511960000     3.166464780000    14.003074004430
      Gh(H)          -1.465921030000     4.847619940000     4.700251540000     1.007825032230
      Gh(H)          -2.452894750000     3.381698920000     2.247356790000     1.007825032230
      Gh(H)           0.000000000000     2.394725200000     3.713277820000     1.007825032230

  Running in c1 symmetry.

  Rotational constants: A =      0.08158  B =      0.05232  C =      0.05232 [cm^-1]
  Rotational constants: A =   2445.58813  B =   1568.53766  C =   1568.53766 [MHz]
  Nuclear repulsion =   12.223291189591457

  Charge       = 0
  Multiplicity = 1
  Electrons    = 10
  Nalpha       = 5
  Nbeta        = 5

  ==> Algorithm <==

  SCF Algorithm Type is DF.
  DIIS enabled.
  MOM disabled.
  Fractional occupation disabled.
  Guess Type is SAD.
  Energy threshold   = 1.00e-08
  Density threshold  = 1.00e-06
  Integral threshold = 0.00e+00

  ==> Primary Basis <==

  Basis Set: STO-3G
    Blend: STO-3G
    Number of shells: 24
    Number of basis function: 32
    Number of Cartesian functions: 32
    Spherical Harmonics?: true
    Max angular momentum: 1

   => Loading Basis Set <=

    Name: (STO-3G AUX)
    Role: JKFIT
    Keyword: DF_BASIS_SCF
    atoms 1, 5, 9, 13            entry N          line   263 file /home/carlosborca/miniconda3/envs/CrystaLattE/share/psi4/basis/def2-svp-jkfit.gbs 
    atoms 2-4, 6-8, 10-12, 14-16 entry H          line    23 file /home/carlosborca/miniconda3/envs/CrystaLattE/share/psi4/basis/def2-svp-jkfit.gbs 

  ==> Pre-Iterations <==

   -------------------------------------------------------
    Irrep   Nso     Nmo     Nalpha   Nbeta   Ndocc  Nsocc
   -------------------------------------------------------
     A         32      32       0       0       0       0
   -------------------------------------------------------
    Total      32      32       5       5       5       0
   -------------------------------------------------------

  ==> Integral Setup <==

  DFHelper Memory: AOs need 0.006 GiB; user supplied 0.349 GiB. Using in-core AOs.

  ==> MemDFJK: Density-Fitted J/K Matrices <==

    J tasked:                   Yes
    K tasked:                   Yes
    wK tasked:                   No
    OpenMP threads:               8
    Memory [MiB]:               357
    Algorithm:                 Core
    Schwarz Cutoff:           1E-12
    Mask sparsity (%):       1.1719
    Fitting Condition:        1E-10

   => Auxiliary Basis Set <=

  Basis Set: (STO-3G AUX)
    Blend: DEF2-SVP-JKFIT
    Number of shells: 172
    Number of basis function: 524
    Number of Cartesian functions: 612
    Spherical Harmonics?: true
    Max angular momentum: 4

  Minimum eigenvalue in the overlap matrix is 2.4683580449E-01.
  Using Symmetric Orthogonalization.

  SCF Guess: Superposition of Atomic Densities via on-the-fly atomic UHF.

  ==> Iterations <==

                           Total Energy        Delta E     RMS |[F,P]|

   @DF-RHF iter SAD:   -54.58561927318500   -5.45856e+01   0.00000e+00 
   @DF-RHF iter   1:   -55.42979151908580   -8.44172e-01   5.19675e-03 DIIS
   @DF-RHF iter   2:   -55.44951533825351   -1.97238e-02   9.87467e-04 DIIS
   @DF-RHF iter   3:   -55.45010890114432   -5.93563e-04   2.03844e-04 DIIS
   @DF-RHF iter   4:   -55.45014439780402   -3.54967e-05   2.19422e-06 DIIS
   @DF-RHF iter   5:   -55.45014440477890   -6.97487e-09   5.96322e-07 DIIS
  Energy and wave function converged.


  ==> Post-Iterations <==

    Orbital Energies [Eh]
    ---------------------

    Doubly Occupied:                                                      

       1A    -15.300960     2A     -1.100351     3A     -0.584877  
       4A     -0.584877     5A     -0.351993  

    Virtual:                                                              

       6A      0.393927     7A      0.434998     8A      0.434998  
       9A      0.660189    10A      0.754035    11A      0.754035  
      12A      0.881403    13A      0.941624    14A      0.941624  
      15A      0.946674    16A      0.975436    17A      0.975436  
      18A      1.316857    19A      1.316857    20A      1.366751  
      21A      2.127395    22A      2.247061    23A      2.247061  
      24A      2.671468    25A      2.671468    26A      2.686412  
      27A      2.719539    28A      2.719539    29A      2.756514  
      30A     23.895829    31A     23.895829    32A     23.932201  

    Final Occupation by Irrep:
              A 
    DOCC [     5 ]

  @DF-RHF Final Energy:   -55.45014440477890

   => Energetics <=

    Nuclear Repulsion Energy =             12.2232911895914569
    One-Electron Energy =                 -99.5007640841644587
    Two-Electron Energy =                  31.8273284897941160
    Total Energy =                        -55.4501444047788965

Computation Completed


Properties will be evaluated at   0.000000,   0.000000,   0.000000 [a0]

Properties computed using the SCF density matrix

  Nuclear Dipole Moment: [e a0]
     X:   -15.6501      Y:   -15.6501      Z:   -15.6501

  Electronic Dipole Moment: [e a0]
     X:    16.0432      Y:    16.0432      Z:    16.0432

  Dipole Moment: [e a0]
     X:     0.3932      Y:     0.3932      Z:     0.3932     Total:     0.6810

  Dipole Moment: [D]
     X:     0.9993      Y:     0.9993      Z:     0.9993     Total:     1.7309


*** tstop() called on Vanadium at Thu Sep 26 11:50:14 2019
Module time:
	user time   =      14.97 seconds =       0.25 minutes
	system time =       3.03 seconds =       0.05 minutes
	total time  =          4 seconds =       0.07 minutes
Total time:
	user time   =     100.67 seconds =       1.68 minutes
	system time =      20.27 seconds =       0.34 minutes
	total time  =         24 seconds =       0.40 minutes

       N-Body: Complex Energy (fragments = (1,), basis = (1, 2, 3, 4):   -55.45014440477890)

   ==> N-Body: Now computing 2-body complexes <==


       N-Body: Computing complex (1/6) with fragments (3, 4) in the basis of fragments (1, 2, 3, 4).


*** tstart() called on Vanadium
*** at Thu Sep 26 11:50:14 2019

   => Loading Basis Set <=

    Name: STO-3G
    Role: ORBITAL
    Keyword: BASIS
    atoms 1, 5, 9, 13            entry N          line    71 file /home/carlosborca/miniconda3/envs/CrystaLattE/share/psi4/basis/sto-3g.gbs 
    atoms 2-4, 6-8, 10-12, 14-16 entry H          line    19 file /home/carlosborca/miniconda3/envs/CrystaLattE/share/psi4/basis/sto-3g.gbs 


         ---------------------------------------------------------
                                   SCF
               by Justin Turney, Rob Parrish, Andy Simmonett
                          and Daniel G. A. Smith
                              RHF Reference
                        8 Threads,    476 MiB Core
         ---------------------------------------------------------

  ==> Geometry <==

    Molecular point group: c1
    Full point group: C1

    Geometry (in Bohr), charge = 0, multiplicity = 1:

       Center              X                  Y                   Z               Mass       
    ------------   -----------------  -----------------  -----------------  -----------------
      Gh(N)          -1.681155160000    -1.681155160000    -1.681155160000    14.003074004430
      Gh(H)          -2.600263150000    -0.147368400000    -1.134342120000     1.007825032230
      Gh(H)          -1.134342120000    -2.600263150000    -0.147368400000     1.007825032230
      Gh(H)          -0.147368400000    -1.134342120000    -2.600263150000     1.007825032230
      Gh(N)           3.928511960000     3.166464780000    -0.919107990000    14.003074004430
      Gh(H)           2.394725200000     3.713277820000     0.000000000000     1.007825032230
      Gh(H)           4.847619940000     4.700251540000    -1.465921030000     1.007825032230
      Gh(H)           3.381698920000     2.247356790000    -2.452894750000     1.007825032230
         N            3.166464780000    -0.919107990000     3.928511960000    14.003074004430
         H            2.247356790000    -2.452894750000     3.381698920000     1.007825032230
         H            3.713277820000     0.000000000000     2.394725200000     1.007825032230
         H            4.700251540000    -1.465921030000     4.847619940000     1.007825032230
         N           -0.919107990000     3.928511960000     3.166464780000    14.003074004430
         H           -1.465921030000     4.847619940000     4.700251540000     1.007825032230
         H           -2.452894750000     3.381698920000     2.247356790000     1.007825032230
         H            0.000000000000     2.394725200000     3.713277820000     1.007825032230

  Running in c1 symmetry.

  Rotational constants: A =      0.08158  B =      0.05232  C =      0.05232 [cm^-1]
  Rotational constants: A =   2445.58813  B =   1568.53766  C =   1568.53766 [MHz]
  Nuclear repulsion =   39.871673339264781

  Charge       = 0
  Multiplicity = 1
  Electrons    = 20
  Nalpha       = 10
  Nbeta        = 10

  ==> Algorithm <==

  SCF Algorithm Type is DF.
  DIIS enabled.
  MOM disabled.
  Fractional occupation disabled.
  Guess Type is SAD.
  Energy threshold   = 1.00e-08
  Density threshold  = 1.00e-06
  Integral threshold = 0.00e+00

  ==> Primary Basis <==

  Basis Set: STO-3G
    Blend: STO-3G
    Number of shells: 24
    Number of basis function: 32
    Number of Cartesian functions: 32
    Spherical Harmonics?: true
    Max angular momentum: 1

   => Loading Basis Set <=

    Name: (STO-3G AUX)
    Role: JKFIT
    Keyword: DF_BASIS_SCF
    atoms 1, 5, 9, 13            entry N          line   263 file /home/carlosborca/miniconda3/envs/CrystaLattE/share/psi4/basis/def2-svp-jkfit.gbs 
    atoms 2-4, 6-8, 10-12, 14-16 entry H          line    23 file /home/carlosborca/miniconda3/envs/CrystaLattE/share/psi4/basis/def2-svp-jkfit.gbs 

  ==> Pre-Iterations <==

   -------------------------------------------------------
    Irrep   Nso     Nmo     Nalpha   Nbeta   Ndocc  Nsocc
   -------------------------------------------------------
     A         32      32       0       0       0       0
   -------------------------------------------------------
    Total      32      32      10      10      10       0
   -------------------------------------------------------

  ==> Integral Setup <==

  DFHelper Memory: AOs need 0.006 GiB; user supplied 0.349 GiB. Using in-core AOs.

  ==> MemDFJK: Density-Fitted J/K Matrices <==

    J tasked:                   Yes
    K tasked:                   Yes
    wK tasked:                   No
    OpenMP threads:               8
    Memory [MiB]:               357
    Algorithm:                 Core
    Schwarz Cutoff:           1E-12
    Mask sparsity (%):       1.1719
    Fitting Condition:        1E-10

   => Auxiliary Basis Set <=

  Basis Set: (STO-3G AUX)
    Blend: DEF2-SVP-JKFIT
    Number of shells: 172
    Number of basis function: 524
    Number of Cartesian functions: 612
    Spherical Harmonics?: true
    Max angular momentum: 4

  Minimum eigenvalue in the overlap matrix is 2.4683580449E-01.
  Using Symmetric Orthogonalization.

  SCF Guess: Superposition of Atomic Densities via on-the-fly atomic UHF.

  ==> Iterations <==

                           Total Energy        Delta E     RMS |[F,P]|

   @DF-RHF iter SAD:  -109.17478475161531   -1.09175e+02   0.00000e+00 
   @DF-RHF iter   1:  -110.86620695464552   -1.69142e+00   7.11612e-03 DIIS
   @DF-RHF iter   2:  -110.90358925175258   -3.73823e-02   1.35419e-03 DIIS
   @DF-RHF iter   3:  -110.90472866533776   -1.13941e-03   2.81757e-04 DIIS
   @DF-RHF iter   4:  -110.90479715874027   -6.84934e-05   4.92220e-06 DIIS
   @DF-RHF iter   5:  -110.90479718410553   -2.53653e-08   8.35961e-07 DIIS
   @DF-RHF iter   6:  -110.90479718501345   -9.07917e-10   2.04912e-07 DIIS
  Energy and wave function converged.


  ==> Post-Iterations <==

    Orbital Energies [Eh]
    ---------------------

    Doubly Occupied:                                                      

       1A    -15.307517     2A    -15.281520     3A     -1.107075  
       4A     -1.082955     5A     -0.594168     6A     -0.591476  
       7A     -0.569393     8A     -0.563450     9A     -0.360591  
      10A     -0.335697  

    Virtual:                                                              

      11A      0.422500    12A      0.443377    13A      0.650730  
      14A      0.688791    15A      0.749303    16A      0.754137  
      17A      0.772413    18A      0.794313    19A      0.922154  
      20A      0.951462    21A      0.977123    22A      0.986402  
      23A      1.323907    24A      1.370371    25A      2.201645  
      26A      2.238439    27A      2.680773    28A      2.701153  
      29A      2.717070    30A      2.739752    31A     23.907602  
      32A     23.928988  

    Final Occupation by Irrep:
              A 
    DOCC [    10 ]

  @DF-RHF Final Energy:  -110.90479718501345

   => Energetics <=

    Nuclear Repulsion Energy =             39.8716733392647811
    One-Electron Energy =                -229.9652604049570073
    Two-Electron Energy =                  79.1887898806787689
    Total Energy =                       -110.9047971850134502

Computation Completed


Properties will be evaluated at   0.000000,   0.000000,   0.000000 [a0]

Properties computed using the SCF density matrix

  Nuclear Dipole Moment: [e a0]
     X:    22.4736      Y:    27.7711      Z:    70.9498

  Electronic Dipole Moment: [e a0]
     X:   -22.4249      Y:   -28.6077      Z:   -70.9268

  Dipole Moment: [e a0]
     X:     0.0487      Y:    -0.8367      Z:     0.0230     Total:     0.8384

  Dipole Moment: [D]
     X:     0.1238      Y:    -2.1266      Z:     0.0585     Total:     2.1310


*** tstop() called on Vanadium at Thu Sep 26 11:50:18 2019
Module time:
	user time   =      15.01 seconds =       0.25 minutes
	system time =       3.02 seconds =       0.05 minutes
	total time  =          4 seconds =       0.07 minutes
Total time:
	user time   =     115.87 seconds =       1.93 minutes
	system time =      23.35 seconds =       0.39 minutes
	total time  =         28 seconds =       0.47 minutes

       N-Body: Complex Energy (fragments = (3, 4), basis = (1, 2, 3, 4):  -110.90479718501345)

       N-Body: Computing complex (2/6) with fragments (1, 2) in the basis of fragments (1, 2, 3, 4).


*** tstart() called on Vanadium
*** at Thu Sep 26 11:50:18 2019

   => Loading Basis Set <=

    Name: STO-3G
    Role: ORBITAL
    Keyword: BASIS
    atoms 1, 5, 9, 13            entry N          line    71 file /home/carlosborca/miniconda3/envs/CrystaLattE/share/psi4/basis/sto-3g.gbs 
    atoms 2-4, 6-8, 10-12, 14-16 entry H          line    19 file /home/carlosborca/miniconda3/envs/CrystaLattE/share/psi4/basis/sto-3g.gbs 


         ---------------------------------------------------------
                                   SCF
               by Justin Turney, Rob Parrish, Andy Simmonett
                          and Daniel G. A. Smith
                              RHF Reference
                        8 Threads,    476 MiB Core
         ---------------------------------------------------------

  ==> Geometry <==

    Molecular point group: c1
    Full point group: C1

    Geometry (in Bohr), charge = 0, multiplicity = 1:

       Center              X                  Y                   Z               Mass       
    ------------   -----------------  -----------------  -----------------  -----------------
         N           -1.681155160000    -1.681155160000    -1.681155160000    14.003074004430
         H           -2.600263150000    -0.147368400000    -1.134342120000     1.007825032230
         H           -1.134342120000    -2.600263150000    -0.147368400000     1.007825032230
         H           -0.147368400000    -1.134342120000    -2.600263150000     1.007825032230
         N            3.928511960000     3.166464780000    -0.919107990000    14.003074004430
         H            2.394725200000     3.713277820000     0.000000000000     1.007825032230
         H            4.847619940000     4.700251540000    -1.465921030000     1.007825032230
         H            3.381698920000     2.247356790000    -2.452894750000     1.007825032230
      Gh(N)           3.166464780000    -0.919107990000     3.928511960000    14.003074004430
      Gh(H)           2.247356790000    -2.452894750000     3.381698920000     1.007825032230
      Gh(H)           3.713277820000     0.000000000000     2.394725200000     1.007825032230
      Gh(H)           4.700251540000    -1.465921030000     4.847619940000     1.007825032230
      Gh(N)          -0.919107990000     3.928511960000     3.166464780000    14.003074004430
      Gh(H)          -1.465921030000     4.847619940000     4.700251540000     1.007825032230
      Gh(H)          -2.452894750000     3.381698920000     2.247356790000     1.007825032230
      Gh(H)           0.000000000000     2.394725200000     3.713277820000     1.007825032230

  Running in c1 symmetry.

  Rotational constants: A =      0.08158  B =      0.05232  C =      0.05232 [cm^-1]
  Rotational constants: A =   2445.58813  B =   1568.53766  C =   1568.53766 [MHz]
  Nuclear repulsion =   38.181027420838156

  Charge       = 0
  Multiplicity = 1
  Electrons    = 20
  Nalpha       = 10
  Nbeta        = 10

  ==> Algorithm <==

  SCF Algorithm Type is DF.
  DIIS enabled.
  MOM disabled.
  Fractional occupation disabled.
  Guess Type is SAD.
  Energy threshold   = 1.00e-08
  Density threshold  = 1.00e-06
  Integral threshold = 0.00e+00

  ==> Primary Basis <==

  Basis Set: STO-3G
    Blend: STO-3G
    Number of shells: 24
    Number of basis function: 32
    Number of Cartesian functions: 32
    Spherical Harmonics?: true
    Max angular momentum: 1

   => Loading Basis Set <=

    Name: (STO-3G AUX)
    Role: JKFIT
    Keyword: DF_BASIS_SCF
    atoms 1, 5, 9, 13            entry N          line   263 file /home/carlosborca/miniconda3/envs/CrystaLattE/share/psi4/basis/def2-svp-jkfit.gbs 
    atoms 2-4, 6-8, 10-12, 14-16 entry H          line    23 file /home/carlosborca/miniconda3/envs/CrystaLattE/share/psi4/basis/def2-svp-jkfit.gbs 

  ==> Pre-Iterations <==

   -------------------------------------------------------
    Irrep   Nso     Nmo     Nalpha   Nbeta   Ndocc  Nsocc
   -------------------------------------------------------
     A         32      32       0       0       0       0
   -------------------------------------------------------
    Total      32      32      10      10      10       0
   -------------------------------------------------------

  ==> Integral Setup <==

  DFHelper Memory: AOs need 0.006 GiB; user supplied 0.349 GiB. Using in-core AOs.

  ==> MemDFJK: Density-Fitted J/K Matrices <==

    J tasked:                   Yes
    K tasked:                   Yes
    wK tasked:                   No
    OpenMP threads:               8
    Memory [MiB]:               357
    Algorithm:                 Core
    Schwarz Cutoff:           1E-12
    Mask sparsity (%):       1.1719
    Fitting Condition:        1E-10

   => Auxiliary Basis Set <=

  Basis Set: (STO-3G AUX)
    Blend: DEF2-SVP-JKFIT
    Number of shells: 172
    Number of basis function: 524
    Number of Cartesian functions: 612
    Spherical Harmonics?: true
    Max angular momentum: 4

  Minimum eigenvalue in the overlap matrix is 2.4683580449E-01.
  Using Symmetric Orthogonalization.

  SCF Guess: Superposition of Atomic Densities via on-the-fly atomic UHF.

  ==> Iterations <==

                           Total Energy        Delta E     RMS |[F,P]|

   @DF-RHF iter SAD:  -109.17187266568726   -1.09172e+02   0.00000e+00 
   @DF-RHF iter   1:  -110.86061109792811   -1.68874e+00   7.34168e-03 DIIS
   @DF-RHF iter   2:  -110.89990389042143   -3.92928e-02   1.40959e-03 DIIS
   @DF-RHF iter   3:  -110.90111075308963   -1.20686e-03   2.90124e-04 DIIS
   @DF-RHF iter   4:  -110.90118287525773   -7.21222e-05   3.77106e-06 DIIS
   @DF-RHF iter   5:  -110.90118289192328   -1.66656e-08   1.01453e-06 DIIS
   @DF-RHF iter   6:  -110.90118289344039   -1.51711e-09   2.57671e-07 DIIS
  Energy and wave function converged.


  ==> Post-Iterations <==

    Orbital Energies [Eh]
    ---------------------

    Doubly Occupied:                                                      

       1A    -15.312079     2A    -15.303003     3A     -1.110485  
       4A     -1.102209     5A     -0.597312     6A     -0.594706  
       7A     -0.586705     8A     -0.584969     9A     -0.362011  
      10A     -0.353805  

    Virtual:                                                              

      11A      0.407751    12A      0.443746    13A      0.633078  
      14A      0.674815    15A      0.732795    16A      0.749524  
      17A      0.753134    18A      0.782589    19A      0.924315  
      20A      0.943413    21A      0.958749    22A      0.991665  
      23A      1.320232    24A      1.359494    25A      2.174863  
      26A      2.259077    27A      2.679704    28A      2.689655  
      29A      2.714821    30A      2.741712    31A     23.896648  
      32A     23.928189  

    Final Occupation by Irrep:
              A 
    DOCC [    10 ]

  @DF-RHF Final Energy:  -110.90118289344039

   => Energetics <=

    Nuclear Repulsion Energy =             38.1810274208381557
    One-Electron Energy =                -226.3498570889541384
    Two-Electron Energy =                  77.2676467746755975
    Total Energy =                       -110.9011828934403923

Computation Completed


Properties will be evaluated at   0.000000,   0.000000,   0.000000 [a0]

Properties computed using the SCF density matrix

  Nuclear Dipole Moment: [e a0]
     X:    22.4736      Y:    17.1761      Z:   -26.0026

  Electronic Dipole Moment: [e a0]
     X:   -22.4660      Y:   -16.3760      Z:    25.9943

  Dipole Moment: [e a0]
     X:     0.0075      Y:     0.8001      Z:    -0.0083     Total:     0.8002

  Dipole Moment: [D]
     X:     0.0191      Y:     2.0337      Z:    -0.0211     Total:     2.0339


*** tstop() called on Vanadium at Thu Sep 26 11:50:22 2019
Module time:
	user time   =      15.42 seconds =       0.26 minutes
	system time =       2.69 seconds =       0.04 minutes
	total time  =          4 seconds =       0.07 minutes
Total time:
	user time   =     131.53 seconds =       2.19 minutes
	system time =      26.05 seconds =       0.43 minutes
	total time  =         32 seconds =       0.53 minutes

       N-Body: Complex Energy (fragments = (1, 2), basis = (1, 2, 3, 4):  -110.90118289344039)

       N-Body: Computing complex (3/6) with fragments (1, 4) in the basis of fragments (1, 2, 3, 4).


*** tstart() called on Vanadium
*** at Thu Sep 26 11:50:22 2019

   => Loading Basis Set <=

    Name: STO-3G
    Role: ORBITAL
    Keyword: BASIS
    atoms 1, 5, 9, 13            entry N          line    71 file /home/carlosborca/miniconda3/envs/CrystaLattE/share/psi4/basis/sto-3g.gbs 
    atoms 2-4, 6-8, 10-12, 14-16 entry H          line    19 file /home/carlosborca/miniconda3/envs/CrystaLattE/share/psi4/basis/sto-3g.gbs 


         ---------------------------------------------------------
                                   SCF
               by Justin Turney, Rob Parrish, Andy Simmonett
                          and Daniel G. A. Smith
                              RHF Reference
                        8 Threads,    476 MiB Core
         ---------------------------------------------------------

  ==> Geometry <==

    Molecular point group: c1
    Full point group: C1

    Geometry (in Bohr), charge = 0, multiplicity = 1:

       Center              X                  Y                   Z               Mass       
[...]

    Doubly Occupied:                                                      

       1A    -15.316290     2A    -15.305148     3A    -15.290447  
       4A     -1.115994     5A     -1.104415     6A     -1.091838  
       7A     -0.603417     8A     -0.601764     9A     -0.590432  
      10A     -0.587883    11A     -0.576733    12A     -0.572310  
      13A     -0.369175    14A     -0.355815    15A     -0.344362  

    Virtual:                                                              

      16A      0.429107    17A      0.619032    18A      0.665169  
      19A      0.681819    20A      0.731839    21A      0.744641  
      22A      0.746596    23A      0.775321    24A      0.780657  
      25A      0.795162    26A      0.953037    27A      0.976012  
      28A      1.345548    29A      2.226217    30A      2.702708  
      31A      2.713550    32A     23.916177  

    Final Occupation by Irrep:
              A 
    DOCC [    15 ]

  @DF-RHF Final Energy:  -166.35407034103744

   => Energetics <=

    Nuclear Repulsion Energy =             79.5638545896474199
    One-Electron Energy =                -384.1838068495735001
    Two-Electron Energy =                 138.2658819188886525
    Total Energy =                       -166.3540703410374419

Computation Completed


Properties will be evaluated at   0.000000,   0.000000,   0.000000 [a0]

Properties computed using the SCF density matrix

  Nuclear Dipole Moment: [e a0]
     X:    12.1210      Y:    55.2997      Z:     6.8235

  Electronic Dipole Moment: [e a0]
     X:   -12.5508      Y:   -54.8766      Z:    -6.3765

  Dipole Moment: [e a0]
     X:    -0.4298      Y:     0.4231      Z:     0.4470     Total:     0.7508

  Dipole Moment: [D]
     X:    -1.0925      Y:     1.0755      Z:     1.1363     Total:     1.9082


*** tstop() called on Vanadium at Thu Sep 26 11:50:48 2019
Module time:
	user time   =      15.20 seconds =       0.25 minutes
	system time =       2.85 seconds =       0.05 minutes
	total time  =          4 seconds =       0.07 minutes
Total time:
	user time   =     238.65 seconds =       3.98 minutes
	system time =      46.52 seconds =       0.78 minutes
	total time  =         58 seconds =       0.97 minutes

       N-Body: Complex Energy (fragments = (1, 2, 4), basis = (1, 2, 3, 4):  -166.35407034103744)

       N-Body: Computing complex (4/4) with fragments (1, 3, 4) in the basis of fragments (1, 2, 3, 4).


*** tstart() called on Vanadium
*** at Thu Sep 26 11:50:48 2019

   => Loading Basis Set <=

    Name: STO-3G
    Role: ORBITAL
    Keyword: BASIS
    atoms 1, 5, 9, 13            entry N          line    71 file /home/carlosborca/miniconda3/envs/CrystaLattE/share/psi4/basis/sto-3g.gbs 
    atoms 2-4, 6-8, 10-12, 14-16 entry H          line    19 file /home/carlosborca/miniconda3/envs/CrystaLattE/share/psi4/basis/sto-3g.gbs 


         ---------------------------------------------------------
                                   SCF
               by Justin Turney, Rob Parrish, Andy Simmonett
                          and Daniel G. A. Smith
                              RHF Reference
                        8 Threads,    476 MiB Core
         ---------------------------------------------------------

  ==> Geometry <==

    Molecular point group: c1
    Full point group: C1

    Geometry (in Bohr), charge = 0, multiplicity = 1:

       Center              X                  Y                   Z               Mass       
    ------------   -----------------  -----------------  -----------------  -----------------
         N           -1.681155160000    -1.681155160000    -1.681155160000    14.003074004430
         H           -2.600263150000    -0.147368400000    -1.134342120000     1.007825032230
         H           -1.134342120000    -2.600263150000    -0.147368400000     1.007825032230
         H           -0.147368400000    -1.134342120000    -2.600263150000     1.007825032230
      Gh(N)           3.928511960000     3.166464780000    -0.919107990000    14.003074004430
      Gh(H)           2.394725200000     3.713277820000     0.000000000000     1.007825032230
      Gh(H)           4.847619940000     4.700251540000    -1.465921030000     1.007825032230
      Gh(H)           3.381698920000     2.247356790000    -2.452894750000     1.007825032230
         N            3.166464780000    -0.919107990000     3.928511960000    14.003074004430
         H            2.247356790000    -2.452894750000     3.381698920000     1.007825032230
         H            3.713277820000     0.000000000000     2.394725200000     1.007825032230
         H            4.700251540000    -1.465921030000     4.847619940000     1.007825032230
         N           -0.919107990000     3.928511960000     3.166464780000    14.003074004430
         H           -1.465921030000     4.847619940000     4.700251540000     1.007825032230
         H           -2.452894750000     3.381698920000     2.247356790000     1.007825032230
         H            0.000000000000     2.394725200000     3.713277820000     1.007825032230

  Running in c1 symmetry.

  Rotational constants: A =      0.08158  B =      0.05232  C =      0.05232 [cm^-1]
  Rotational constants: A =   2445.58813  B =   1568.53766  C =   1568.53766 [MHz]
  Nuclear repulsion =   79.563854589647406

  Charge       = 0
  Multiplicity = 1
  Electrons    = 30
  Nalpha       = 15
  Nbeta        = 15

  ==> Algorithm <==

  SCF Algorithm Type is DF.
  DIIS enabled.
  MOM disabled.
  Fractional occupation disabled.
  Guess Type is SAD.
  Energy threshold   = 1.00e-08
  Density threshold  = 1.00e-06
  Integral threshold = 0.00e+00

  ==> Primary Basis <==

  Basis Set: STO-3G
    Blend: STO-3G
    Number of shells: 24
    Number of basis function: 32
    Number of Cartesian functions: 32
    Spherical Harmonics?: true
    Max angular momentum: 1

   => Loading Basis Set <=

    Name: (STO-3G AUX)
    Role: JKFIT
    Keyword: DF_BASIS_SCF
    atoms 1, 5, 9, 13            entry N          line   263 file /home/carlosborca/miniconda3/envs/CrystaLattE/share/psi4/basis/def2-svp-jkfit.gbs 
    atoms 2-4, 6-8, 10-12, 14-16 entry H          line    23 file /home/carlosborca/miniconda3/envs/CrystaLattE/share/psi4/basis/def2-svp-jkfit.gbs 

  ==> Pre-Iterations <==

   -------------------------------------------------------
    Irrep   Nso     Nmo     Nalpha   Nbeta   Ndocc  Nsocc
   -------------------------------------------------------
     A         32      32       0       0       0       0
   -------------------------------------------------------
    Total      32      32      15      15      15       0
   -------------------------------------------------------

  ==> Integral Setup <==

  DFHelper Memory: AOs need 0.006 GiB; user supplied 0.349 GiB. Using in-core AOs.

  ==> MemDFJK: Density-Fitted J/K Matrices <==

    J tasked:                   Yes
    K tasked:                   Yes
    wK tasked:                   No
    OpenMP threads:               8
    Memory [MiB]:               357
    Algorithm:                 Core
    Schwarz Cutoff:           1E-12
    Mask sparsity (%):       1.1719
    Fitting Condition:        1E-10

   => Auxiliary Basis Set <=

  Basis Set: (STO-3G AUX)
    Blend: DEF2-SVP-JKFIT
    Number of shells: 172
    Number of basis function: 524
    Number of Cartesian functions: 612
    Spherical Harmonics?: true
    Max angular momentum: 4

  Minimum eigenvalue in the overlap matrix is 2.4683580449E-01.
  Using Symmetric Orthogonalization.

  SCF Guess: Superposition of Atomic Densities via on-the-fly atomic UHF.

  ==> Iterations <==

                           Total Energy        Delta E     RMS |[F,P]|

   @DF-RHF iter SAD:  -163.76166432795557   -1.63762e+02   0.00000e+00 
   @DF-RHF iter   1:  -166.29486021688160   -2.53320e+00   8.83850e-03 DIIS
   @DF-RHF iter   2:  -166.35222058821537   -5.73604e-02   1.68287e-03 DIIS
   @DF-RHF iter   3:  -166.35396547423667   -1.74489e-03   3.49137e-04 DIIS
   @DF-RHF iter   4:  -166.35407030564386   -1.04831e-04   5.49139e-06 DIIS
   @DF-RHF iter   5:  -166.35407033916610   -3.35222e-08   1.15516e-06 DIIS
   @DF-RHF iter   6:  -166.35407034096744   -1.80134e-09   2.95010e-07 DIIS
  Energy and wave function converged.


  ==> Post-Iterations <==

    Orbital Energies [Eh]
    ---------------------

    Doubly Occupied:                                                      

       1A    -15.316290     2A    -15.305148     3A    -15.290447  
       4A     -1.115994     5A     -1.104415     6A     -1.091838  
       7A     -0.603417     8A     -0.601764     9A     -0.590432  
      10A     -0.587883    11A     -0.576733    12A     -0.572310  
      13A     -0.369175    14A     -0.355815    15A     -0.344362  

    Virtual:                                                              

      16A      0.429107    17A      0.619032    18A      0.665169  
      19A      0.681819    20A      0.731839    21A      0.744641  
      22A      0.746596    23A      0.775321    24A      0.780657  
      25A      0.795162    26A      0.953037    27A      0.976012  
      28A      1.345548    29A      2.226217    30A      2.702708  
      31A      2.713550    32A     23.916177  

    Final Occupation by Irrep:
              A 
    DOCC [    15 ]

  @DF-RHF Final Energy:  -166.35407034096744

   => Energetics <=

    Nuclear Repulsion Energy =             79.5638545896474056
    One-Electron Energy =                -384.1838068495507059
    Two-Electron Energy =                 138.2658819189358610
    Total Energy =                       -166.3540703409674393

Computation Completed


Properties will be evaluated at   0.000000,   0.000000,   0.000000 [a0]

Properties computed using the SCF density matrix

  Nuclear Dipole Moment: [e a0]
     X:     6.8235      Y:    12.1210      Z:    55.2997

  Electronic Dipole Moment: [e a0]
     X:    -6.3765      Y:   -12.5508      Z:   -54.8766

  Dipole Moment: [e a0]
     X:     0.4470      Y:    -0.4298      Z:     0.4231     Total:     0.7508

  Dipole Moment: [D]
     X:     1.1363      Y:    -1.0925      Z:     1.0755     Total:     1.9082


*** tstop() called on Vanadium at Thu Sep 26 11:50:52 2019
Module time:
	user time   =      14.05 seconds =       0.23 minutes
	system time =       2.97 seconds =       0.05 minutes
	total time  =          4 seconds =       0.07 minutes
Total time:
	user time   =     252.89 seconds =       4.21 minutes
	system time =      49.55 seconds =       0.83 minutes
	total time  =         62 seconds =       1.03 minutes

       N-Body: Complex Energy (fragments = (1, 3, 4), basis = (1, 2, 3, 4):  -166.35407034096744)

   ==> N-Body: Now computing 4-body complexes <==


       N-Body: Computing complex (1/1) with fragments (1, 2, 3, 4) in the basis of fragments (1, 2, 3, 4).


*** tstart() called on Vanadium
*** at Thu Sep 26 11:50:52 2019

   => Loading Basis Set <=

    Name: STO-3G
    Role: ORBITAL
    Keyword: BASIS
    atoms 1, 5, 9, 13            entry N          line    71 file /home/carlosborca/miniconda3/envs/CrystaLattE/share/psi4/basis/sto-3g.gbs 
    atoms 2-4, 6-8, 10-12, 14-16 entry H          line    19 file /home/carlosborca/miniconda3/envs/CrystaLattE/share/psi4/basis/sto-3g.gbs 


         ---------------------------------------------------------
                                   SCF
               by Justin Turney, Rob Parrish, Andy Simmonett
                          and Daniel G. A. Smith
                              RHF Reference
                        8 Threads,    476 MiB Core
         ---------------------------------------------------------

  ==> Geometry <==

    Molecular point group: c1
    Full point group: C1

    Geometry (in Bohr), charge = 0, multiplicity = 1:

       Center              X                  Y                   Z               Mass       
    ------------   -----------------  -----------------  -----------------  -----------------
         N           -1.681155160000    -1.681155160000    -1.681155160000    14.003074004430
         H           -2.600263150000    -0.147368400000    -1.134342120000     1.007825032230
         H           -1.134342120000    -2.600263150000    -0.147368400000     1.007825032230
         H           -0.147368400000    -1.134342120000    -2.600263150000     1.007825032230
         N            3.928511960000     3.166464780000    -0.919107990000    14.003074004430
         H            2.394725200000     3.713277820000     0.000000000000     1.007825032230
         H            4.847619940000     4.700251540000    -1.465921030000     1.007825032230
         H            3.381698920000     2.247356790000    -2.452894750000     1.007825032230
         N            3.166464780000    -0.919107990000     3.928511960000    14.003074004430
         H            2.247356790000    -2.452894750000     3.381698920000     1.007825032230
         H            3.713277820000     0.000000000000     2.394725200000     1.007825032230
         H            4.700251540000    -1.465921030000     4.847619940000     1.007825032230
         N           -0.919107990000     3.928511960000     3.166464780000    14.003074004430
         H           -1.465921030000     4.847619940000     4.700251540000     1.007825032230
         H           -2.452894750000     3.381698920000     2.247356790000     1.007825032230
         H            0.000000000000     2.394725200000     3.713277820000     1.007825032230

  Running in c1 symmetry.

  Rotational constants: A =      0.08158  B =      0.05232  C =      0.05232 [cm^-1]
  Rotational constants: A =   2445.58813  B =   1568.53766  C =   1568.53766 [MHz]
  Nuclear repulsion =  136.371772696019093

  Charge       = 0
  Multiplicity = 1
  Electrons    = 40
  Nalpha       = 20
  Nbeta        = 20

  ==> Algorithm <==

  SCF Algorithm Type is DF.
  DIIS enabled.
  MOM disabled.
  Fractional occupation disabled.
  Guess Type is SAD.
  Energy threshold   = 1.00e-08
  Density threshold  = 1.00e-06
  Integral threshold = 0.00e+00

  ==> Primary Basis <==

  Basis Set: STO-3G
    Blend: STO-3G
    Number of shells: 24
    Number of basis function: 32
    Number of Cartesian functions: 32
    Spherical Harmonics?: true
    Max angular momentum: 1

   => Loading Basis Set <=

    Name: (STO-3G AUX)
    Role: JKFIT
    Keyword: DF_BASIS_SCF
    atoms 1, 5, 9, 13            entry N          line   263 file /home/carlosborca/miniconda3/envs/CrystaLattE/share/psi4/basis/def2-svp-jkfit.gbs 
    atoms 2-4, 6-8, 10-12, 14-16 entry H          line    23 file /home/carlosborca/miniconda3/envs/CrystaLattE/share/psi4/basis/def2-svp-jkfit.gbs 

  ==> Pre-Iterations <==

   -------------------------------------------------------
    Irrep   Nso     Nmo     Nalpha   Nbeta   Ndocc  Nsocc
   -------------------------------------------------------
     A         32      32       0       0       0       0
   -------------------------------------------------------
    Total      32      32      20      20      20       0
   -------------------------------------------------------

  ==> Integral Setup <==

  DFHelper Memory: AOs need 0.006 GiB; user supplied 0.349 GiB. Using in-core AOs.

  ==> MemDFJK: Density-Fitted J/K Matrices <==

    J tasked:                   Yes
    K tasked:                   Yes
    wK tasked:                   No
    OpenMP threads:               8
    Memory [MiB]:               357
    Algorithm:                 Core
    Schwarz Cutoff:           1E-12
    Mask sparsity (%):       1.1719
    Fitting Condition:        1E-10

   => Auxiliary Basis Set <=

  Basis Set: (STO-3G AUX)
    Blend: DEF2-SVP-JKFIT
    Number of shells: 172
    Number of basis function: 524
    Number of Cartesian functions: 612
    Spherical Harmonics?: true
    Max angular momentum: 4

  Minimum eigenvalue in the overlap matrix is 2.4683580449E-01.
  Using Symmetric Orthogonalization.

  SCF Guess: Superposition of Atomic Densities via on-the-fly atomic UHF.

  ==> Iterations <==

                           Total Energy        Delta E     RMS |[F,P]|

   @DF-RHF iter SAD:  -218.35499426021968   -2.18355e+02   0.00000e+00 
   @DF-RHF iter   1:  -221.73300266703382   -3.37801e+00   9.99372e-03 DIIS
   @DF-RHF iter   2:  -221.80697028752849   -7.39676e-02   1.88196e-03 DIIS
   @DF-RHF iter   3:  -221.80919157941617   -2.22129e-03   3.93373e-04 DIIS
   @DF-RHF iter   4:  -221.80932523003395   -1.33651e-04   8.64049e-06 DIIS
   @DF-RHF iter   5:  -221.80932530492075   -7.48868e-08   1.72015e-06 DIIS
   @DF-RHF iter   6:  -221.80932530830313   -3.38238e-09   3.95195e-07 DIIS
  Energy and wave function converged.


  ==> Post-Iterations <==

    Orbital Energies [Eh]
    ---------------------

    Doubly Occupied:                                                      

       1A    -15.307364     2A    -15.295209     3A    -15.295118  
       4A    -15.295118     5A     -1.107371     6A     -1.102084  
       7A     -1.095542     8A     -1.095542     9A     -0.598824  
      10A     -0.594857    11A     -0.594857    12A     -0.584481  
      13A     -0.581978    14A     -0.581978    15A     -0.571087  
      16A     -0.571087    17A     -0.357920    18A     -0.356120  
      19A     -0.356120    20A     -0.344876  

    Virtual:                                                              

      21A      0.608943    22A      0.671646    23A      0.671646  
      24A      0.679762    25A      0.739792    26A      0.739792  
      27A      0.768805    28A      0.774300    29A      0.774300  
      30A      0.784352    31A      0.795174    32A      0.795174  

    Final Occupation by Irrep:
              A 
    DOCC [    20 ]

  @DF-RHF Final Energy:  -221.80932530830313

   => Energetics <=

    Nuclear Repulsion Energy =            136.3717726960190930
    One-Electron Energy =                -572.9871397400142996
    Two-Electron Energy =                 214.8060417356920766
    Total Energy =                       -221.8093253083031300

Computation Completed


Properties will be evaluated at   0.000000,   0.000000,   0.000000 [a0]

Properties computed using the SCF density matrix

  Nuclear Dipole Moment: [e a0]
     X:    44.9471      Y:    44.9471      Z:    44.9471

  Electronic Dipole Moment: [e a0]
     X:   -44.9128      Y:   -44.9128      Z:   -44.9128

  Dipole Moment: [e a0]
     X:     0.0344      Y:     0.0344      Z:     0.0344     Total:     0.0595

  Dipole Moment: [D]
     X:     0.0873      Y:     0.0873      Z:     0.0873     Total:     0.1512


*** tstop() called on Vanadium at Thu Sep 26 11:50:56 2019
Module time:
	user time   =      15.34 seconds =       0.26 minutes
	system time =       2.51 seconds =       0.04 minutes
	total time  =          4 seconds =       0.07 minutes
Total time:
	user time   =     268.42 seconds =       4.47 minutes
	system time =      52.17 seconds =       0.87 minutes
	total time  =         66 seconds =       1.10 minutes

       N-Body: Complex Energy (fragments = (1, 2, 3, 4), basis = (1, 2, 3, 4):  -221.80932530830313)

   ==> N-Body: Counterpoise Corrected (CP) energies <==

   n-Body     Total Energy [Eh]       I.E. [kcal/mol]      Delta [kcal/mol]
        1     -221.799861436848        0.000000000000        0.000000000000
        2     -221.804192197819       -2.717593538157       -2.717593538157
        3     -221.804651772727       -3.005981146699       -0.288387608542
        4     -221.804650253684       -3.005027933148        0.000953213550

   => Loading Basis Set <=

    Name: DEF2-SVP
    Role: ORBITAL
    Keyword: BASIS
    atoms 1, 5, 9, 13            entry N          line   110 file /home/carlosborca/miniconda3/envs/CrystaLattE/share/psi4/basis/def2-svp.gbs 
    atoms 2-4, 6-8, 10-12, 14-16 entry H          line    15 file /home/carlosborca/miniconda3/envs/CrystaLattE/share/psi4/basis/def2-svp.gbs 


    Psi4 stopped on: Thursday, 26 September 2019 11:50AM
    Psi4 wall time for execution: 0:01:05.85

*** Psi4 exiting successfully. Buy a developer a beer!
