
    -----------------------------------------------------------------------
          Psi4: An Open-Source Ab Initio Electronic Structure Package
                               Psi4 1.4a2.dev37 

                         Git: Rev {master} a6305a1 


    R. M. Parrish, L. A. Burns, D. G. A. Smith, A. C. Simmonett,
    A. E. DePrince III, E. G. Hohenstein, U. Bozkaya, A. Yu. Sokolov,
    R. Di Remigio, R. M. Richard, J. F. Gonthier, A. M. James,
    H. R. McAlexander, A. Kumar, M. Saitow, X. Wang, B. P. Pritchard,
    P. Verma, H. F. Schaefer III, K. Patkowski, R. A. King, E. F. Valeev,
    F. A. Evangelista, J. M. Turney, T. D. Crawford, and C. D. Sherrill,
    J. Chem. Theory Comput. 13(7) pp 3185--3197 (2017).
    (doi: 10.1021/acs.jctc.7b00174)


                         Additional Contributions by
    P. Kraus, H. Kruse, M. H. Lechner, M. C. Schieber, R. A. Shaw,
    A. Alenaizan, R. Galvelis, Z. L. Glick, S. Lehtola, and J. P. Misiewicz

    -----------------------------------------------------------------------


    Psi4 started on: Thursday, 26 September 2019 03:58PM

    Process ID: 1600
    Host:       Vanadium
    PSIDATADIR: /home/carlosborca/miniconda3/envs/CrystaLattE/share/psi4
    Memory:     500.0 MiB
    Threads:    4
    
  ==> Input File <==

--------------------------------------------------------------------------
# PSI4 file produced by CrystaLattE

# Psithon input for N-mer:      5mer-0+1+2+3+4
# Number of replicas:           3
# Priority index for input:     1.44182007e-22
# Minimum monomer separations:  2.428  2.428  2.428  2.588  2.588  2.588  2.588  2.588  3.945  5.012 
# COM priority index for input: 3.24350205e-27
# Minimum COM separations:      3.418  3.418  3.418  3.883  3.883  3.883  3.883  3.883  5.131  6.434 

memory 500 MB

molecule Pentamer_0_1_2_3_4 {
  N           -1.68115516      -1.68115516      -1.68115516 
  H           -2.60026315      -0.14736840      -1.13434212 
  H           -1.13434212      -2.60026315      -0.14736840 
  H           -0.14736840      -1.13434212      -2.60026315 
--
  N            3.92851196       3.16646478      -0.91910799 
  H            2.39472520       3.71327782       0.00000000 
  H            4.84761994       4.70025154      -1.46592103 
  H            3.38169892       2.24735679      -2.45289475 
--
  N            3.16646478      -0.91910799       3.92851196 
  H            2.24735679      -2.45289475       3.38169892 
  H            3.71327782       0.00000000       2.39472520 
  H            4.70025154      -1.46592103       4.84761994 
--
  N           -0.91910799       3.92851196       3.16646478 
  H           -1.46592103       4.84761994       4.70025154 
  H           -2.45289475       3.38169892       2.24735679 
  H            0.00000000       2.39472520       3.71327782 
--
  N            3.92851196      -6.52877511      -0.91910799 
  H            2.39472520      -5.98196207       0.00000000 
  H            4.84761994      -4.99498835      -1.46592103 
  H            3.38169892      -7.44788309      -2.45289475 
units = au
no_com
no_reorient
}

set {
  e_convergence 8
  scf_type df
  mp2_type df
  cc_type df
  freeze_core true
}

energy('scf/STO-3G', bsse_type = 'nocp')

--------------------------------------------------------------------------

  Memory set to 476.837 MiB by Python driver.


   ===> N-Body Interaction Abacus <===
        BSSE Treatment:                     nocp
        Number of 1-body computations:     5
        Number of 2-body computations:     10
        Number of 3-body computations:     10
        Number of 4-body computations:     5
        Number of 5-body computations:     1

   ==> N-Body: Now computing 1-body complexes <==


       N-Body: Computing complex (1/5) with fragments (4,) in the basis of fragments (4,).


*** tstart() called on Vanadium
*** at Thu Sep 26 15:58:12 2019

   => Loading Basis Set <=

    Name: STO-3G
    Role: ORBITAL
    Keyword: BASIS
    atoms 1   entry N          line    71 file /home/carlosborca/miniconda3/envs/CrystaLattE/share/psi4/basis/sto-3g.gbs 
    atoms 2-4 entry H          line    19 file /home/carlosborca/miniconda3/envs/CrystaLattE/share/psi4/basis/sto-3g.gbs 


         ---------------------------------------------------------
                                   SCF
               by Justin Turney, Rob Parrish, Andy Simmonett
                          and Daniel G. A. Smith
                              RHF Reference
                        4 Threads,    476 MiB Core
         ---------------------------------------------------------

  ==> Geometry <==

    Molecular point group: c1
    Full point group: C1

    Geometry (in Bohr), charge = 0, multiplicity = 1:

       Center              X                  Y                   Z               Mass       
    ------------   -----------------  -----------------  -----------------  -----------------
         N           -0.919107990000     3.928511960000     3.166464780000    14.003074004430
         H           -1.465921030000     4.847619940000     4.700251540000     1.007825032230
         H           -2.452894750000     3.381698920000     2.247356790000     1.007825032230
         H            0.000000000000     2.394725200000     3.713277820000     1.007825032230

  Running in c1 symmetry.

  Rotational constants: A =     10.50680  B =      0.13254  C =      0.13153 [cm^-1]
  Rotational constants: A = 314985.91418  B =   3973.38736  C =   3943.16163 [MHz]
  Nuclear repulsion =   12.223291200851138

  Charge       = 0
  Multiplicity = 1
  Electrons    = 10
  Nalpha       = 5
  Nbeta        = 5

  ==> Algorithm <==

  SCF Algorithm Type is DF.
  DIIS enabled.
  MOM disabled.
  Fractional occupation disabled.
  Guess Type is SAD.
  Energy threshold   = 1.00e-08
  Density threshold  = 1.00e-06
  Integral threshold = 0.00e+00

  ==> Primary Basis <==

  Basis Set: STO-3G
    Blend: STO-3G
    Number of shells: 6
    Number of basis function: 8
    Number of Cartesian functions: 8
    Spherical Harmonics?: true
    Max angular momentum: 1

   => Loading Basis Set <=

    Name: (STO-3G AUX)
    Role: JKFIT
    Keyword: DF_BASIS_SCF
    atoms 1   entry N          line   263 file /home/carlosborca/miniconda3/envs/CrystaLattE/share/psi4/basis/def2-svp-jkfit.gbs 
    atoms 2-4 entry H          line    23 file /home/carlosborca/miniconda3/envs/CrystaLattE/share/psi4/basis/def2-svp-jkfit.gbs 

  ==> Pre-Iterations <==

   -------------------------------------------------------
    Irrep   Nso     Nmo     Nalpha   Nbeta   Ndocc  Nsocc
   -------------------------------------------------------
     A          8       8       0       0       0       0
   -------------------------------------------------------
    Total       8       8       5       5       5       0
   -------------------------------------------------------

  ==> Integral Setup <==

  DFHelper Memory: AOs need 0.000 GiB; user supplied 0.349 GiB. Using in-core AOs.

  ==> MemDFJK: Density-Fitted J/K Matrices <==

    J tasked:                   Yes
    K tasked:                   Yes
    wK tasked:                   No
    OpenMP threads:               4
    Memory [MiB]:               357
    Algorithm:                 Core
    Schwarz Cutoff:           1E-12
    Mask sparsity (%):       0.0000
    Fitting Condition:        1E-10

   => Auxiliary Basis Set <=

  Basis Set: (STO-3G AUX)
    Blend: DEF2-SVP-JKFIT
    Number of shells: 43
    Number of basis function: 131
    Number of Cartesian functions: 153
    Spherical Harmonics?: true
    Max angular momentum: 4

  Minimum eigenvalue in the overlap matrix is 2.5446568031E-01.
  Using Symmetric Orthogonalization.

  SCF Guess: Superposition of Atomic Densities via on-the-fly atomic UHF.

  ==> Iterations <==

                           Total Energy        Delta E     RMS |[F,P]|

   @DF-RHF iter SAD:   -54.58562506170267   -5.45856e+01   0.00000e+00 
   @DF-RHF iter   1:   -55.42957380016240   -8.43949e-01   2.08005e-02 DIIS
   @DF-RHF iter   2:   -55.44933997574164   -1.97662e-02   3.93998e-03 DIIS
   @DF-RHF iter   3:   -55.44993006298662   -5.90087e-04   8.13904e-04 DIIS
   @DF-RHF iter   4:   -55.44996535331006   -3.52903e-05   7.59270e-06 DIIS
   @DF-RHF iter   5:   -55.44996535915967   -5.84961e-09   9.86692e-07 DIIS
  Energy and wave function converged.


  ==> Post-Iterations <==

    Orbital Energies [Eh]
    ---------------------

    Doubly Occupied:                                                      

       1A    -15.300501     2A     -1.100051     3A     -0.584614  
       4A     -0.584614     5A     -0.351735  

    Virtual:                                                              

       6A      0.663673     7A      0.759629     8A      0.759629  

    Final Occupation by Irrep:
              A 
    DOCC [     5 ]

  @DF-RHF Final Energy:   -55.44996535915967

   => Energetics <=

    Nuclear Repulsion Energy =             12.2232912008511381
    One-Electron Energy =                 -99.5034370119295488
    Two-Electron Energy =                  31.8301804519187463
    Total Energy =                        -55.4499653591596626

Computation Completed


Properties will be evaluated at   0.000000,   0.000000,   0.000000 [a0]

Properties computed using the SCF density matrix

  Nuclear Dipole Moment: [e a0]
     X:   -10.3526      Y:    38.1236      Z:    32.8261

  Electronic Dipole Moment: [e a0]
     X:     9.9577      Y:   -38.5185      Z:   -32.4312

  Dipole Moment: [e a0]
     X:    -0.3949      Y:    -0.3949      Z:     0.3949     Total:     0.6840

  Dipole Moment: [D]
     X:    -1.0038      Y:    -1.0038      Z:     1.0038     Total:     1.7386


*** tstop() called on Vanadium at Thu Sep 26 15:58:13 2019
Module time:
	user time   =       3.60 seconds =       0.06 minutes
	system time =       0.82 seconds =       0.01 minutes
	total time  =          1 seconds =       0.02 minutes
Total time:
	user time   =       3.60 seconds =       0.06 minutes
	system time =       0.82 seconds =       0.01 minutes
	total time  =          1 seconds =       0.02 minutes

       N-Body: Complex Energy (fragments = (4,), basis = (4,):   -55.44996535915967)

       N-Body: Computing complex (2/5) with fragments (1,) in the basis of fragments (1,).


*** tstart() called on Vanadium
*** at Thu Sep 26 15:58:13 2019

   => Loading Basis Set <=

    Name: STO-3G
    Role: ORBITAL
    Keyword: BASIS
    atoms 1   entry N          line    71 file /home/carlosborca/miniconda3/envs/CrystaLattE/share/psi4/basis/sto-3g.gbs 
    atoms 2-4 entry H          line    19 file /home/carlosborca/miniconda3/envs/CrystaLattE/share/psi4/basis/sto-3g.gbs 


         ---------------------------------------------------------
                                   SCF
               by Justin Turney, Rob Parrish, Andy Simmonett
                          and Daniel G. A. Smith
                              RHF Reference
                        4 Threads,    476 MiB Core
         ---------------------------------------------------------

  ==> Geometry <==

    Molecular point group: c1
    Full point group: C1

    Geometry (in Bohr), charge = 0, multiplicity = 1:

       Center              X                  Y                   Z               Mass       
    ------------   -----------------  -----------------  -----------------  -----------------
         N           -1.681155160000    -1.681155160000    -1.681155160000    14.003074004430
         H           -2.600263150000    -0.147368400000    -1.134342120000     1.007825032230
         H           -1.134342120000    -2.600263150000    -0.147368400000     1.007825032230
         H           -0.147368400000    -1.134342120000    -2.600263150000     1.007825032230

  Running in c1 symmetry.

  Rotational constants: A =      6.53545  B =      0.43458  C =      0.43458 [cm^-1]
  Rotational constants: A = 195927.87342  B =  13028.43972  C =  13028.43972 [MHz]
  Nuclear repulsion =   12.223291189591457

  Charge       = 0
  Multiplicity = 1
  Electrons    = 10
  Nalpha       = 5
  Nbeta        = 5

  ==> Algorithm <==

  SCF Algorithm Type is DF.
  DIIS enabled.
  MOM disabled.
  Fractional occupation disabled.
  Guess Type is SAD.
  Energy threshold   = 1.00e-08
  Density threshold  = 1.00e-06
  Integral threshold = 0.00e+00

  ==> Primary Basis <==

  Basis Set: STO-3G
    Blend: STO-3G
    Number of shells: 6
    Number of basis function: 8
    Number of Cartesian functions: 8
    Spherical Harmonics?: true
    Max angular momentum: 1

   => Loading Basis Set <=

    Name: (STO-3G AUX)
    Role: JKFIT
    Keyword: DF_BASIS_SCF
    atoms 1   entry N          line   263 file /home/carlosborca/miniconda3/envs/CrystaLattE/share/psi4/basis/def2-svp-jkfit.gbs 
    atoms 2-4 entry H          line    23 file /home/carlosborca/miniconda3/envs/CrystaLattE/share/psi4/basis/def2-svp-jkfit.gbs 

  ==> Pre-Iterations <==

   -------------------------------------------------------
    Irrep   Nso     Nmo     Nalpha   Nbeta   Ndocc  Nsocc
   -------------------------------------------------------
     A          8       8       0       0       0       0
   -------------------------------------------------------
    Total       8       8       5       5       5       0
   -------------------------------------------------------

  ==> Integral Setup <==

  DFHelper Memory: AOs need 0.000 GiB; user supplied 0.349 GiB. Using in-core AOs.

  ==> MemDFJK: Density-Fitted J/K Matrices <==

    J tasked:                   Yes
    K tasked:                   Yes
    wK tasked:                   No
    OpenMP threads:               4
    Memory [MiB]:               357
    Algorithm:                 Core
    Schwarz Cutoff:           1E-12
    Mask sparsity (%):       0.0000
    Fitting Condition:        1E-10

   => Auxiliary Basis Set <=

  Basis Set: (STO-3G AUX)
    Blend: DEF2-SVP-JKFIT
    Number of shells: 43
    Number of basis function: 131
    Number of Cartesian functions: 153
    Spherical Harmonics?: true
    Max angular momentum: 4

  Minimum eigenvalue in the overlap matrix is 2.5446568092E-01.
  Using Symmetric Orthogonalization.

  SCF Guess: Superposition of Atomic Densities via on-the-fly atomic UHF.

  ==> Iterations <==

                           Total Energy        Delta E     RMS |[F,P]|

   @DF-RHF iter SAD:   -54.58562505887944   -5.45856e+01   0.00000e+00 
   @DF-RHF iter   1:   -55.42957380035038   -8.43949e-01   2.08005e-02 DIIS
   @DF-RHF iter   2:   -55.44933997592631   -1.97662e-02   3.93998e-03 DIIS
   @DF-RHF iter   3:   -55.44993006317274   -5.90087e-04   8.13904e-04 DIIS
   @DF-RHF iter   4:   -55.44996535349632   -3.52903e-05   7.59270e-06 DIIS
   @DF-RHF iter   5:   -55.44996535934587   -5.84955e-09   9.86692e-07 DIIS
  Energy and wave function converged.


  ==> Post-Iterations <==

    Orbital Energies [Eh]
    ---------------------

    Doubly Occupied:                                                      

       1A    -15.300501     2A     -1.100051     3A     -0.584614  
       4A     -0.584614     5A     -0.351735  

    Virtual:                                                              

       6A      0.663673     7A      0.759629     8A      0.759629  

    Final Occupation by Irrep:
              A 
    DOCC [     5 ]

  @DF-RHF Final Energy:   -55.44996535934587

   => Energetics <=

    Nuclear Repulsion Energy =             12.2232911895914569
    One-Electron Energy =                 -99.5034369941981254
    Two-Electron Energy =                  31.8301804452607904
    Total Energy =                        -55.4499653593458675

Computation Completed


Properties will be evaluated at   0.000000,   0.000000,   0.000000 [a0]

Properties computed using the SCF density matrix

  Nuclear Dipole Moment: [e a0]
     X:   -15.6501      Y:   -15.6501      Z:   -15.6501

  Electronic Dipole Moment: [e a0]
     X:    16.0450      Y:    16.0450      Z:    16.0450

  Dipole Moment: [e a0]
     X:     0.3949      Y:     0.3949      Z:     0.3949     Total:     0.6840

  Dipole Moment: [D]
     X:     1.0038      Y:     1.0038      Z:     1.0038     Total:     1.7386


*** tstop() called on Vanadium at Thu Sep 26 15:58:15 2019
Module time:
	user time   =       4.68 seconds =       0.08 minutes
	system time =       0.88 seconds =       0.01 minutes
	total time  =          2 seconds =       0.03 minutes
Total time:
	user time   =       8.35 seconds =       0.14 minutes
	system time =       1.75 seconds =       0.03 minutes
	total time  =          3 seconds =       0.05 minutes

       N-Body: Complex Energy (fragments = (1,), basis = (1,):   -55.44996535934587)

       N-Body: Computing complex (3/5) with fragments (3,) in the basis of fragments (3,).


*** tstart() called on Vanadium
*** at Thu Sep 26 15:58:15 2019

   => Loading Basis Set <=

    Name: STO-3G
    Role: ORBITAL
    Keyword: BASIS
    atoms 1   entry N          line    71 file /home/carlosborca/miniconda3/envs/CrystaLattE/share/psi4/basis/sto-3g.gbs 
    atoms 2-4 entry H          line    19 file /home/carlosborca/miniconda3/envs/CrystaLattE/share/psi4/basis/sto-3g.gbs 


         ---------------------------------------------------------
                                   SCF
               by Justin Turney, Rob Parrish, Andy Simmonett
                          and Daniel G. A. Smith
                              RHF Reference
                        4 Threads,    476 MiB Core
         ---------------------------------------------------------

  ==> Geometry <==

    Molecular point group: c1
    Full point group: C1

    Geometry (in Bohr), charge = 0, multiplicity = 1:

       Center              X                  Y                   Z               Mass       
    ------------   -----------------  -----------------  -----------------  -----------------
         N            3.166464780000    -0.919107990000     3.928511960000    14.003074004430
         H            2.247356790000    -2.452894750000     3.381698920000     1.007825032230
         H            3.713277820000     0.000000000000     2.394725200000     1.007825032230
         H            4.700251540000    -1.465921030000     4.847619940000     1.007825032230

  Running in c1 symmetry.

  Rotational constants: A =     10.50680  B =      0.13254  C =      0.13153 [cm^-1]
  Rotational constants: A = 314985.91418  B =   3973.38736  C =   3943.16163 [MHz]
  Nuclear repulsion =   12.223291200851136

  Charge       = 0
  Multiplicity = 1
  Electrons    = 10
  Nalpha       = 5
  Nbeta        = 5

  ==> Algorithm <==

  SCF Algorithm Type is DF.
  DIIS enabled.
  MOM disabled.
  Fractional occupation disabled.
  Guess Type is SAD.
  Energy threshold   = 1.00e-08
  Density threshold  = 1.00e-06
  Integral threshold = 0.00e+00

  ==> Primary Basis <==

  Basis Set: STO-3G
    Blend: STO-3G
    Number of shells: 6
    Number of basis function: 8
    Number of Cartesian functions: 8
    Spherical Harmonics?: true
    Max angular momentum: 1

   => Loading Basis Set <=

    Name: (STO-3G AUX)
    Role: JKFIT
    Keyword: DF_BASIS_SCF
    atoms 1   entry N          line   263 file /home/carlosborca/miniconda3/envs/CrystaLattE/share/psi4/basis/def2-svp-jkfit.gbs 
    atoms 2-4 entry H          line    23 file /home/carlosborca/miniconda3/envs/CrystaLattE/share/psi4/basis/def2-svp-jkfit.gbs 

  ==> Pre-Iterations <==

   -------------------------------------------------------
    Irrep   Nso     Nmo     Nalpha   Nbeta   Ndocc  Nsocc
   -------------------------------------------------------
     A          8       8       0       0       0       0
   -------------------------------------------------------
    Total       8       8       5       5       5       0
   -------------------------------------------------------

  ==> Integral Setup <==

  DFHelper Memory: AOs need 0.000 GiB; user supplied 0.349 GiB. Using in-core AOs.

  ==> MemDFJK: Density-Fitted J/K Matrices <==

    J tasked:                   Yes
    K tasked:                   Yes
    wK tasked:                   No
    OpenMP threads:               4
    Memory [MiB]:               357
    Algorithm:                 Core
    Schwarz Cutoff:           1E-12
    Mask sparsity (%):       0.0000
    Fitting Condition:        1E-10

   => Auxiliary Basis Set <=

  Basis Set: (STO-3G AUX)
    Blend: DEF2-SVP-JKFIT
    Number of shells: 43
    Number of basis function: 131
    Number of Cartesian functions: 153
    Spherical Harmonics?: true
    Max angular momentum: 4

  Minimum eigenvalue in the overlap matrix is 2.5446568031E-01.
  Using Symmetric Orthogonalization.

  SCF Guess: Superposition of Atomic Densities via on-the-fly atomic UHF.

  ==> Iterations <==

                           Total Energy        Delta E     RMS |[F,P]|

   @DF-RHF iter SAD:   -54.58562506171285   -5.45856e+01   0.00000e+00 
   @DF-RHF iter   1:   -55.42957380017283   -8.43949e-01   2.08005e-02 DIIS
   @DF-RHF iter   2:   -55.44933997575206   -1.97662e-02   3.93998e-03 DIIS
   @DF-RHF iter   3:   -55.44993006299702   -5.90087e-04   8.13904e-04 DIIS
   @DF-RHF iter   4:   -55.44996535332047   -3.52903e-05   7.59270e-06 DIIS
   @DF-RHF iter   5:   -55.44996535917009   -5.84963e-09   9.86692e-07 DIIS
  Energy and wave function converged.


  ==> Post-Iterations <==

    Orbital Energies [Eh]
    ---------------------

    Doubly Occupied:                                                      

       1A    -15.300501     2A     -1.100051     3A     -0.584614  
       4A     -0.584614     5A     -0.351735  

    Virtual:                                                              

       6A      0.663673     7A      0.759629     8A      0.759629  

    Final Occupation by Irrep:
              A 
    DOCC [     5 ]

  @DF-RHF Final Energy:   -55.44996535917009

   => Energetics <=

    Nuclear Repulsion Energy =             12.2232912008511363
    One-Electron Energy =                 -99.5034370119315668
    Two-Electron Energy =                  31.8301804519103406
    Total Energy =                        -55.4499653591700934

Computation Completed


Properties will be evaluated at   0.000000,   0.000000,   0.000000 [a0]

Properties computed using the SCF density matrix

  Nuclear Dipole Moment: [e a0]
     X:    32.8261      Y:   -10.3526      Z:    38.1236

  Electronic Dipole Moment: [e a0]
     X:   -32.4312      Y:     9.9577      Z:   -38.5185

  Dipole Moment: [e a0]
     X:     0.3949      Y:    -0.3949      Z:    -0.3949     Total:     0.6840

  Dipole Moment: [D]
     X:     1.0038      Y:    -1.0038      Z:    -1.0038     Total:     1.7386


*** tstop() called on Vanadium at Thu Sep 26 15:58:16 2019
Module time:
	user time   =       3.88 seconds =       0.06 minutes
	system time =       0.61 seconds =       0.01 minutes
	total time  =          1 seconds =       0.02 minutes
Total time:
	user time   =      12.33 seconds =       0.21 minutes
	system time =       2.37 seconds =       0.04 minutes
	total time  =          4 seconds =       0.07 minutes

       N-Body: Complex Energy (fragments = (3,), basis = (3,):   -55.44996535917009)

       N-Body: Computing complex (4/5) with fragments (5,) in the basis of fragments (5,).


*** tstart() called on Vanadium
*** at Thu Sep 26 15:58:16 2019

   => Loading Basis Set <=

    Name: STO-3G
    Role: ORBITAL
    Keyword: BASIS
    atoms 1   entry N          line    71 file /home/carlosborca/miniconda3/envs/CrystaLattE/share/psi4/basis/sto-3g.gbs 
    atoms 2-4 entry H          line    19 file /home/carlosborca/miniconda3/envs/CrystaLattE/share/psi4/basis/sto-3g.gbs 


         ---------------------------------------------------------
                                   SCF
               by Justin Turney, Rob Parrish, Andy Simmonett
                          and Daniel G. A. Smith
                              RHF Reference
                        4 Threads,    476 MiB Core
         ---------------------------------------------------------

  ==> Geometry <==

    Molecular point group: c1
    Full point group: C1

    Geometry (in Bohr), charge = 0, multiplicity = 1:

       Center              X                  Y                   Z               Mass       
    ------------   -----------------  -----------------  -----------------  -----------------
         N            3.928511960000    -6.528775110000    -0.919107990000    14.003074004430
         H            2.394725200000    -5.981962070000     0.000000000000     1.007825032230
         H            4.847619940000    -4.994988350000    -1.465921030000     1.007825032230
         H            3.381698920000    -7.447883090000    -2.452894750000     1.007825032230

  Running in c1 symmetry.

  Rotational constants: A =      8.05015  B =      0.06102  C =      0.06091 [cm^-1]
  Rotational constants: A = 241337.31312  B =   1829.35065  C =   1826.14248 [MHz]
  Nuclear repulsion =   12.223291212110814

  Charge       = 0
  Multiplicity = 1
  Electrons    = 10
  Nalpha       = 5
  Nbeta        = 5

  ==> Algorithm <==

  SCF Algorithm Type is DF.
  DIIS enabled.
  MOM disabled.
  Fractional occupation disabled.
  Guess Type is SAD.
  Energy threshold   = 1.00e-08
  Density threshold  = 1.00e-06
  Integral threshold = 0.00e+00

  ==> Primary Basis <==

  Basis Set: STO-3G
    Blend: STO-3G
    Number of shells: 6
    Number of basis function: 8
    Number of Cartesian functions: 8
    Spherical Harmonics?: true
    Max angular momentum: 1

   => Loading Basis Set <=

    Name: (STO-3G AUX)
    Role: JKFIT
    Keyword: DF_BASIS_SCF
    atoms 1   entry N          line   263 file /home/carlosborca/miniconda3/envs/CrystaLattE/share/psi4/basis/def2-svp-jkfit.gbs 
    atoms 2-4 entry H          line    23 file /home/carlosborca/miniconda3/envs/CrystaLattE/share/psi4/basis/def2-svp-jkfit.gbs 

  ==> Pre-Iterations <==

   -------------------------------------------------------
    Irrep   Nso     Nmo     Nalpha   Nbeta   Ndocc  Nsocc
   -------------------------------------------------------
     A          8       8       0       0       0       0
   -------------------------------------------------------
    Total       8       8       5       5       5       0
   -------------------------------------------------------

  ==> Integral Setup <==

  DFHelper Memory: AOs need 0.000 GiB; user supplied 0.349 GiB. Using in-core AOs.

  ==> MemDFJK: Density-Fitted J/K Matrices <==

    J tasked:                   Yes
    K tasked:                   Yes
    wK tasked:                   No
    OpenMP threads:               4
    Memory [MiB]:               357
    Algorithm:                 Core
    Schwarz Cutoff:           1E-12
    Mask sparsity (%):       0.0000
    Fitting Condition:        1E-10

   => Auxiliary Basis Set <=

  Basis Set: (STO-3G AUX)
    Blend: DEF2-SVP-JKFIT
    Number of shells: 43
    Number of basis function: 131
    Number of Cartesian functions: 153
    Spherical Harmonics?: true
    Max angular momentum: 4

  Minimum eigenvalue in the overlap matrix is 2.5446567971E-01.
  Using Symmetric Orthogonalization.

  SCF Guess: Superposition of Atomic Densities via on-the-fly atomic UHF.

  ==> Iterations <==

                           Total Energy        Delta E     RMS |[F,P]|

   @DF-RHF iter SAD:   -54.58562506451266   -5.45856e+01   0.00000e+00 
   @DF-RHF iter   1:   -55.42957379996167   -8.43949e-01   2.08005e-02 DIIS
   @DF-RHF iter   2:   -55.44933997554418   -1.97662e-02   3.93998e-03 DIIS
   @DF-RHF iter   3:   -55.44993006278772   -5.90087e-04   8.13904e-04 DIIS
   @DF-RHF iter   4:   -55.44996535311100   -3.52903e-05   7.59270e-06 DIIS
   @DF-RHF iter   5:   -55.44996535896059   -5.84959e-09   9.86692e-07 DIIS
  Energy and wave function converged.


  ==> Post-Iterations <==

    Orbital Energies [Eh]
    ---------------------

    Doubly Occupied:                                                      

       1A    -15.300501     2A     -1.100051     3A     -0.584614  
       4A     -0.584614     5A     -0.351735  

    Virtual:                                                              

       6A      0.663673     7A      0.759629     8A      0.759629  

    Final Occupation by Irrep:
              A 
    DOCC [     5 ]

  @DF-RHF Final Energy:   -55.44996535896059

   => Energetics <=

    Nuclear Repulsion Energy =             12.2232912121108139
    One-Electron Energy =                 -99.5034370296628765
    Two-Electron Energy =                  31.8301804585914745
    Total Energy =                        -55.4499653589605970

Computation Completed


Properties will be evaluated at   0.000000,   0.000000,   0.000000 [a0]

Properties computed using the SCF density matrix

  Nuclear Dipole Moment: [e a0]
     X:    38.1236      Y:   -64.1263      Z:   -10.3526

  Electronic Dipole Moment: [e a0]
     X:   -38.5185      Y:    64.5212      Z:     9.9577

  Dipole Moment: [e a0]
     X:    -0.3949      Y:     0.3949      Z:    -0.3949     Total:     0.6840

  Dipole Moment: [D]
     X:    -1.0038      Y:     1.0038      Z:    -1.0038     Total:     1.7386


*** tstop() called on Vanadium at Thu Sep 26 15:58:18 2019
Module time:
	user time   =       3.83 seconds =       0.06 minutes
	system time =       0.60 seconds =       0.01 minutes
	total time  =          2 seconds =       0.03 minutes
Total time:
	user time   =      16.19 seconds =       0.27 minutes
	system time =       3.00 seconds =       0.05 minutes
	total time  =          6 seconds =       0.10 minutes

       N-Body: Complex Energy (fragments = (5,), basis = (5,):   -55.44996535896059)

       N-Body: Computing complex (5/5) with fragments (2,) in the basis of fragments (2,).


*** tstart() called on Vanadium
*** at Thu Sep 26 15:58:18 2019

   => Loading Basis Set <=

    Name: STO-3G
    Role: ORBITAL
    Keyword: BASIS
    atoms 1   entry N          line    71 file /home/carlosborca/miniconda3/envs/CrystaLattE/share/psi4/basis/sto-3g.gbs 
    atoms 2-4 entry H          line    19 file /home/carlosborca/miniconda3/envs/CrystaLattE/share/psi4/basis/sto-3g.gbs 


         ---------------------------------------------------------
                                   SCF
               by Justin Turney, Rob Parrish, Andy Simmonett
                          and Daniel G. A. Smith
                              RHF Reference
                        4 Threads,    476 MiB Core
         ---------------------------------------------------------

  ==> Geometry <==

    Molecular point group: c1
    Full point group: C1

    Geometry (in Bohr), charge = 0, multiplicity = 1:

       Center              X                  Y                   Z               Mass       
    ------------   -----------------  -----------------  -----------------  -----------------
         N            3.928511960000     3.166464780000    -0.919107990000    14.003074004430
         H            2.394725200000     3.713277820000     0.000000000000     1.007825032230
         H            4.847619940000     4.700251540000    -1.465921030000     1.007825032230
         H            3.381698920000     2.247356790000    -2.452894750000     1.007825032230

  Running in c1 symmetry.

  Rotational constants: A =     10.50680  B =      0.13254  C =      0.13153 [cm^-1]
  Rotational constants: A = 314985.91418  B =   3973.38736  C =   3943.16163 [MHz]
  Nuclear repulsion =   12.223291200851136

  Charge       = 0
  Multiplicity = 1
  Electrons    = 10
  Nalpha       = 5
  Nbeta        = 5

  ==> Algorithm <==

  SCF Algorithm Type is DF.
  DIIS enabled.
  MOM disabled.
  Fractional occupation disabled.
  Guess Type is SAD.
  Energy threshold   = 1.00e-08
  Density threshold  = 1.00e-06
  Integral threshold = 0.00e+00

  ==> Primary Basis <==

  Basis Set: STO-3G
    Blend: STO-3G
    Number of shells: 6
    Number of basis function: 8
    Number of Cartesian functions: 8
    Spherical Harmonics?: true
    Max angular momentum: 1

   => Loading Basis Set <=

    Name: (STO-3G AUX)
    Role: JKFIT
    Keyword: DF_BASIS_SCF
    atoms 1   entry N          line   263 file /home/carlosborca/miniconda3/envs/CrystaLattE/share/psi4/basis/def2-svp-jkfit.gbs 
    atoms 2-4 entry H          line    23 file /home/carlosborca/miniconda3/envs/CrystaLattE/share/psi4/basis/def2-svp-jkfit.gbs 

  ==> Pre-Iterations <==

   -------------------------------------------------------
    Irrep   Nso     Nmo     Nalpha   Nbeta   Ndocc  Nsocc
   -------------------------------------------------------
     A          8       8       0       0       0       0
   -------------------------------------------------------
    Total       8       8       5       5       5       0
   -------------------------------------------------------

  ==> Integral Setup <==

  DFHelper Memory: AOs need 0.000 GiB; user supplied 0.349 GiB. Using in-core AOs.

  ==> MemDFJK: Density-Fitted J/K Matrices <==

    J tasked:                   Yes
    K tasked:                   Yes
    wK tasked:                   No
    OpenMP threads:               4
    Memory [MiB]:               357
    Algorithm:                 Core
    Schwarz Cutoff:           1E-12
    Mask sparsity (%):       0.0000
    Fitting Condition:        1E-10

   => Auxiliary Basis Set <=

  Basis Set: (STO-3G AUX)
    Blend: DEF2-SVP-JKFIT
    Number of shells: 43
    Number of basis function: 131
    Number of Cartesian functions: 153
    Spherical Harmonics?: true
    Max angular momentum: 4

  Minimum eigenvalue in the overlap matrix is 2.5446568031E-01.
  Using Symmetric Orthogonalization.

  SCF Guess: Superposition of Atomic Densities via on-the-fly atomic UHF.

  ==> Iterations <==

                           Total Energy        Delta E     RMS |[F,P]|

   @DF-RHF iter SAD:   -54.58562506171485   -5.45856e+01   0.00000e+00 
   @DF-RHF iter   1:   -55.42957380017451   -8.43949e-01   2.08005e-02 DIIS
   @DF-RHF iter   2:   -55.44933997575379   -1.97662e-02   3.93998e-03 DIIS
   @DF-RHF iter   3:   -55.44993006299882   -5.90087e-04   8.13904e-04 DIIS
   @DF-RHF iter   4:   -55.44996535332223   -3.52903e-05   7.59270e-06 DIIS
   @DF-RHF iter   5:   -55.44996535917183   -5.84959e-09   9.86692e-07 DIIS
  Energy and wave function converged.


  ==> Post-Iterations <==

    Orbital Energies [Eh]
    ---------------------

    Doubly Occupied:                                                      

       1A    -15.300501     2A     -1.100051     3A     -0.584614  
       4A     -0.584614     5A     -0.351735  

    Virtual:                                                              

       6A      0.663673     7A      0.759629     8A      0.759629  

    Final Occupation by Irrep:
              A 
    DOCC [     5 ]

  @DF-RHF Final Energy:   -55.44996535917183

   => Energetics <=

    Nuclear Repulsion Energy =             12.2232912008511363
    One-Electron Energy =                 -99.5034370119356595
    Two-Electron Energy =                  31.8301804519126996
    Total Energy =                        -55.4499653591718271

Computation Completed


Properties will be evaluated at   0.000000,   0.000000,   0.000000 [a0]

Properties computed using the SCF density matrix

  Nuclear Dipole Moment: [e a0]
     X:    38.1236      Y:    32.8261      Z:   -10.3526

  Electronic Dipole Moment: [e a0]
     X:   -38.5185      Y:   -32.4312      Z:     9.9577

  Dipole Moment: [e a0]
     X:    -0.3949      Y:     0.3949      Z:    -0.3949     Total:     0.6840

  Dipole Moment: [D]
     X:    -1.0038      Y:     1.0038      Z:    -1.0038     Total:     1.7386


*** tstop() called on Vanadium at Thu Sep 26 15:58:19 2019
Module time:
	user time   =       3.83 seconds =       0.06 minutes
	system time =       0.59 seconds =       0.01 minutes
	total time  =          1 seconds =       0.02 minutes
Total time:
	user time   =      20.08 seconds =       0.33 minutes
	system time =       3.59 seconds =       0.06 minutes
	total time  =          7 seconds =       0.12 minutes

       N-Body: Complex Energy (fragments = (2,), basis = (2,):   -55.44996535917183)

   ==> N-Body: Now computing 2-body complexes <==


       N-Body: Computing complex (1/10) with fragments (1, 2) in the basis of fragments (1, 2).


*** tstart() called on Vanadium
*** at Thu Sep 26 15:58:19 2019

   => Loading Basis Set <=

    Name: STO-3G
    Role: ORBITAL
    Keyword: BASIS
    atoms 1, 5     entry N          line    71 file /home/carlosborca/miniconda3/envs/CrystaLattE/share/psi4/basis/sto-3g.gbs 
    atoms 2-4, 6-8 entry H          line    19 file /home/carlosborca/miniconda3/envs/CrystaLattE/share/psi4/basis/sto-3g.gbs 


         ---------------------------------------------------------
                                   SCF
               by Justin Turney, Rob Parrish, Andy Simmonett
                          and Daniel G. A. Smith
                              RHF Reference
                        4 Threads,    476 MiB Core
         ---------------------------------------------------------

  ==> Geometry <==

    Molecular point group: c1
    Full point group: C1

    Geometry (in Bohr), charge = 0, multiplicity = 1:

       Center              X                  Y                   Z               Mass       
    ------------   -----------------  -----------------  -----------------  -----------------
         N           -1.681155160000    -1.681155160000    -1.681155160000    14.003074004430
         H           -2.600263150000    -0.147368400000    -1.134342120000     1.007825032230
         H           -1.134342120000    -2.600263150000    -0.147368400000     1.007825032230
         H           -0.147368400000    -1.134342120000    -2.600263150000     1.007825032230
         N            3.928511960000     3.166464780000    -0.919107990000    14.003074004430
         H            2.394725200000     3.713277820000     0.000000000000     1.007825032230
         H            4.847619940000     4.700251540000    -1.465921030000     1.007825032230
         H            3.381698920000     2.247356790000    -2.452894750000     1.007825032230

  Running in c1 symmetry.

  Rotational constants: A =      0.81389  B =      0.11262  C =      0.10111 [cm^-1]
  Rotational constants: A =  24399.66655  B =   3376.30827  C =   3031.20899 [MHz]
  Nuclear repulsion =   38.181027420838156

  Charge       = 0
  Multiplicity = 1
  Electrons    = 20
  Nalpha       = 10
  Nbeta        = 10

  ==> Algorithm <==

  SCF Algorithm Type is DF.
  DIIS enabled.
  MOM disabled.
  Fractional occupation disabled.
  Guess Type is SAD.
  Energy threshold   = 1.00e-08
  Density threshold  = 1.00e-06
  Integral threshold = 0.00e+00

  ==> Primary Basis <==

  Basis Set: STO-3G
    Blend: STO-3G
    Number of shells: 12
    Number of basis function: 16
    Number of Cartesian functions: 16
    Spherical Harmonics?: true
    Max angular momentum: 1

   => Loading Basis Set <=

    Name: (STO-3G AUX)
    Role: JKFIT
    Keyword: DF_BASIS_SCF
    atoms 1, 5     entry N          line   263 file /home/carlosborca/miniconda3/envs/CrystaLattE/share/psi4/basis/def2-svp-jkfit.gbs 
    atoms 2-4, 6-8 entry H          line    23 file /home/carlosborca/miniconda3/envs/CrystaLattE/share/psi4/basis/def2-svp-jkfit.gbs 

  ==> Pre-Iterations <==

   -------------------------------------------------------
    Irrep   Nso     Nmo     Nalpha   Nbeta   Ndocc  Nsocc
   -------------------------------------------------------
     A         16      16       0       0       0       0
   -------------------------------------------------------
    Total      16      16      10      10      10       0
   -------------------------------------------------------

  ==> Integral Setup <==

  DFHelper Memory: AOs need 0.001 GiB; user supplied 0.349 GiB. Using in-core AOs.

  ==> MemDFJK: Density-Fitted J/K Matrices <==

    J tasked:                   Yes
    K tasked:                   Yes
    wK tasked:                   No
    OpenMP threads:               4
    Memory [MiB]:               357
    Algorithm:                 Core
    Schwarz Cutoff:           1E-12
    Mask sparsity (%):       0.7812
    Fitting Condition:        1E-10

   => Auxiliary Basis Set <=

  Basis Set: (STO-3G AUX)
    Blend: DEF2-SVP-JKFIT
    Number of shells: 86
    Number of basis function: 262
    Number of Cartesian functions: 306
    Spherical Harmonics?: true
    Max angular momentum: 4

  Minimum eigenvalue in the overlap matrix is 2.4902476447E-01.
  Using Symmetric Orthogonalization.

  SCF Guess: Superposition of Atomic Densities via on-the-fly atomic UHF.

  ==> Iterations <==

                           Total Energy        Delta E     RMS |[F,P]|

   @DF-RHF iter SAD:  -109.17187536361409   -1.09172e+02   0.00000e+00 
   @DF-RHF iter   1:  -110.85868685651440   -1.68681e+00   1.47404e-02 DIIS
   @DF-RHF iter   2:  -110.89833834745345   -3.96515e-02   2.79577e-03 DIIS
   @DF-RHF iter   3:  -110.89952567303530   -1.18733e-03   5.76810e-04 DIIS
   @DF-RHF iter   4:  -110.89959659941229   -7.09264e-05   6.16741e-06 DIIS
   @DF-RHF iter   5:  -110.89959661335394   -1.39416e-08   1.19982e-06 DIIS
   @DF-RHF iter   6:  -110.89959661386973   -5.15797e-10   1.49399e-07 DIIS
  Energy and wave function converged.


  ==> Post-Iterations <==

    Orbital Energies [Eh]
    ---------------------

    Doubly Occupied:                                                      

       1A    -15.309488     2A    -15.302774     3A     -1.109192  
       4A     -1.102065     5A     -0.596255     6A     -0.593544  
       7A     -0.586607     8A     -0.584627     9A     -0.360547  
      10A     -0.353674  

    Virtual:                                                              

      11A      0.631414    12A      0.679403    13A      0.733311  
      14A      0.750523    15A      0.758755    16A      0.784199  

    Final Occupation by Irrep:
              A 
    DOCC [    10 ]

  @DF-RHF Final Energy:  -110.89959661386973

   => Energetics <=

    Nuclear Repulsion Energy =             38.1810274208381557
    One-Electron Energy =                -226.3637036476457638
    Two-Electron Energy =                  77.2830796129378825
    Total Energy =                       -110.8995966138697327

Computation Completed


Properties will be evaluated at   0.000000,   0.000000,   0.000000 [a0]

Properties computed using the SCF density matrix

  Nuclear Dipole Moment: [e a0]
     X:    22.4736      Y:    17.1761      Z:   -26.0026

  Electronic Dipole Moment: [e a0]
     X:   -22.4669      Y:   -16.3865      Z:    26.0088

  Dipole Moment: [e a0]
     X:     0.0067      Y:     0.7896      Z:     0.0062     Total:     0.7897

  Dipole Moment: [D]
     X:     0.0170      Y:     2.0070      Z:     0.0158     Total:     2.0072


*** tstop() called on Vanadium at Thu Sep 26 15:58:21 2019
Module time:
	user time   =       4.33 seconds =       0.07 minutes
	system time =       0.80 seconds =       0.01 minutes
	total time  =          2 seconds =       0.03 minutes
Total time:
	user time   =      24.47 seconds =       0.41 minutes
	system time =       4.39 seconds =       0.07 minutes
	total time  =          9 seconds =       0.15 minutes

       N-Body: Complex Energy (fragments = (1, 2), basis = (1, 2):  -110.89959661386973)

       N-Body: Computing complex (2/10) with fragments (1, 3) in the basis of fragments (1, 3).


*** tstart() called on Vanadium
*** at Thu Sep 26 15:58:21 2019

   => Loading Basis Set <=

    Name: STO-3G
    Role: ORBITAL
    Keyword: BASIS
    atoms 1, 5     entry N          line    71 file /home/carlosborca/miniconda3/envs/CrystaLattE/share/psi4/basis/sto-3g.gbs 
    atoms 2-4, 6-8 entry H          line    19 file /home/carlosborca/miniconda3/envs/CrystaLattE/share/psi4/basis/sto-3g.gbs 


         ---------------------------------------------------------
                                   SCF
               by Justin Turney, Rob Parrish, Andy Simmonett
                          and Daniel G. A. Smith
                              RHF Reference
                        4 Threads,    476 MiB Core
         ---------------------------------------------------------

  ==> Geometry <==

    Molecular point group: c1
    Full point group: C1

    Geometry (in Bohr), charge = 0, multiplicity = 1:

       Center              X                  Y                   Z               Mass       
    ------------   -----------------  -----------------  -----------------  -----------------
         N           -1.681155160000    -1.681155160000    -1.681155160000    14.003074004430
         H           -2.600263150000    -0.147368400000    -1.134342120000     1.007825032230
         H           -1.134342120000    -2.600263150000    -0.147368400000     1.007825032230
         H           -0.147368400000    -1.134342120000    -2.600263150000     1.007825032230
         N            3.166464780000    -0.919107990000     3.928511960000    14.003074004430
         H            2.247356790000    -2.452894750000     3.381698920000     1.007825032230
         H            3.713277820000     0.000000000000     2.394725200000     1.007825032230
         H            4.700251540000    -1.465921030000     4.847619940000     1.007825032230

  Running in c1 symmetry.

  Rotational constants: A =      0.81389  B =      0.11262  C =      0.10111 [cm^-1]
  Rotational constants: A =  24399.66655  B =   3376.30827  C =   3031.20899 [MHz]
  Nuclear repulsion =   38.181027420838156

  Charge       = 0
  Multiplicity = 1
  Electrons    = 20
  Nalpha       = 10
  Nbeta        = 10

  ==> Algorithm <==

  SCF Algorithm Type is DF.
  DIIS enabled.
  MOM disabled.
  Fractional occupation disabled.
  Guess Type is SAD.
  Energy threshold   = 1.00e-08
  Density threshold  = 1.00e-06
  Integral threshold = 0.00e+00

  ==> Primary Basis <==

  Basis Set: STO-3G
    Blend: STO-3G
    Number of shells: 12
    Number of basis function: 16
    Number of Cartesian functions: 16
    Spherical Harmonics?: true
    Max angular momentum: 1

   => Loading Basis Set <=

    Name: (STO-3G AUX)
    Role: JKFIT
    Keyword: DF_BASIS_SCF
    atoms 1, 5     entry N          line   263 file /home/carlosborca/miniconda3/envs/CrystaLattE/share/psi4/basis/def2-svp-jkfit.gbs 
    atoms 2-4, 6-8 entry H          line    23 file /home/carlosborca/miniconda3/envs/CrystaLattE/share/psi4/basis/def2-svp-jkfit.gbs 

  ==> Pre-Iterations <==

   -------------------------------------------------------
    Irrep   Nso     Nmo     Nalpha   Nbeta   Ndocc  Nsocc
   -------------------------------------------------------
     A         16      16       0       0       0       0
   -------------------------------------------------------
    Total      16      16      10      10      10       0
   -------------------------------------------------------

  ==> Integral Setup <==

  DFHelper Memory: AOs need 0.001 GiB; user supplied 0.349 GiB. Using in-core AOs.

  ==> MemDFJK: Density-Fitted J/K Matrices <==

    J tasked:                   Yes
    K tasked:                   Yes
    wK tasked:                   No
    OpenMP threads:               4
    Memory [MiB]:               357
    Algorithm:                 Core
    Schwarz Cutoff:           1E-12
    Mask sparsity (%):       0.7812
    Fitting Condition:        1E-10

   => Auxiliary Basis Set <=

  Basis Set: (STO-3G AUX)
    Blend: DEF2-SVP-JKFIT
    Number of shells: 86
    Number of basis function: 262
    Number of Cartesian functions: 306
    Spherical Harmonics?: true
    Max angular momentum: 4

  Minimum eigenvalue in the overlap matrix is 2.4902476447E-01.
  Using Symmetric Orthogonalization.

  SCF Guess: Superposition of Atomic Densities via on-the-fly atomic UHF.

  ==> Iterations <==

                           Total Energy        Delta E     RMS |[F,P]|

   @DF-RHF iter SAD:  -109.17187536361544   -1.09172e+02   0.00000e+00 
   @DF-RHF iter   1:  -110.85868685651619   -1.68681e+00   1.47404e-02 DIIS
   @DF-RHF iter   2:  -110.89833834745518   -3.96515e-02   2.79577e-03 DIIS
   @DF-RHF iter   3:  -110.89952567303715   -1.18733e-03   5.76810e-04 DIIS
   @DF-RHF iter   4:  -110.89959659941412   -7.09264e-05   6.16741e-06 DIIS
   @DF-RHF iter   5:  -110.89959661335573   -1.39416e-08   1.19982e-06 DIIS
   @DF-RHF iter   6:  -110.89959661387141   -5.15683e-10   1.49399e-07 DIIS
  Energy and wave function converged.


  ==> Post-Iterations <==

    Orbital Energies [Eh]
    ---------------------

    Doubly Occupied:                                                      

       1A    -15.309488     2A    -15.302774     3A     -1.109192  
       4A     -1.102065     5A     -0.596255     6A     -0.593544  
       7A     -0.586607     8A     -0.584627     9A     -0.360547  
      10A     -0.353674  

    Virtual:                                                              

      11A      0.631414    12A      0.679403    13A      0.733311  
      14A      0.750523    15A      0.758755    16A      0.784199  

    Final Occupation by Irrep:
              A 
    DOCC [    10 ]

  @DF-RHF Final Energy:  -110.89959661387141

   => Energetics <=

    Nuclear Repulsion Energy =             38.1810274208381557
    One-Electron Energy =                -226.3637036476554556
    Two-Electron Energy =                  77.2830796129458975
    Total Energy =                       -110.8995966138714095

Computation Completed


Properties will be evaluated at   0.000000,   0.000000,   0.000000 [a0]

Properties computed using the SCF density matrix

  Nuclear Dipole Moment: [e a0]
     X:    17.1761      Y:   -26.0026      Z:    22.4736

  Electronic Dipole Moment: [e a0]
     X:   -16.3865      Y:    26.0088      Z:   -22.4669

  Dipole Moment: [e a0]
     X:     0.7896      Y:     0.0062      Z:     0.0067     Total:     0.7897

  Dipole Moment: [D]
     X:     2.0070      Y:     0.0158      Z:     0.0170     Total:     2.0072


*** tstop() called on Vanadium at Thu Sep 26 15:58:23 2019
Module time:
	user time   =       4.37 seconds =       0.07 minutes
	system time =       0.72 seconds =       0.01 minutes
	total time  =          2 seconds =       0.03 minutes
Total time:
	user time   =      28.89 seconds =       0.48 minutes
	system time =       5.12 seconds =       0.09 minutes
	total time  =         11 seconds =       0.18 minutes

       N-Body: Complex Energy (fragments = (1, 3), basis = (1, 3):  -110.89959661387141)

       N-Body: Computing complex (3/10) with fragments (2, 4) in the basis of fragments (2, 4).


*** tstart() called on Vanadium
*** at Thu Sep 26 15:58:23 2019

   => Loading Basis Set <=

    Name: STO-3G
    Role: ORBITAL
    Keyword: BASIS
    atoms 1, 5     entry N          line    71 file /home/carlosborca/miniconda3/envs/CrystaLattE/share/psi4/basis/sto-3g.gbs 
    atoms 2-4, 6-8 entry H          line    19 file /home/carlosborca/miniconda3/envs/CrystaLattE/share/psi4/basis/sto-3g.gbs 


         ---------------------------------------------------------
                                   SCF
               by Justin Turney, Rob Parrish, Andy Simmonett
                          and Daniel G. A. Smith
                              RHF Reference
                        4 Threads,    476 MiB Core
         ---------------------------------------------------------

  ==> Geometry <==

    Molecular point group: c1
    Full point group: C1

    Geometry (in Bohr), charge = 0, multiplicity = 1:

       Center              X                  Y                   Z               Mass       
    ------------   -----------------  -----------------  -----------------  -----------------
         N            3.928511960000     3.166464780000    -0.919107990000    14.003074004430
         H            2.394725200000     3.713277820000     0.000000000000     1.007825032230
         H            4.847619940000     4.700251540000    -1.465921030000     1.007825032230
         H            3.381698920000     2.247356790000    -2.452894750000     1.007825032230
         N           -0.919107990000     3.928511960000     3.166464780000    14.003074004430
         H           -1.465921030000     4.847619940000     4.700251540000     1.007825032230
         H           -2.452894750000     3.381698920000     2.247356790000     1.007825032230
         H            0.000000000000     2.394725200000     3.713277820000     1.007825032230

  Running in c1 symmetry.

  Rotational constants: A =      0.16367  B =      0.10842  C =      0.06599 [cm^-1]
  Rotational constants: A =   4906.84480  B =   3250.32793  C =   1978.44545 [MHz]
  Nuclear repulsion =   39.871673339264788

  Charge       = 0
  Multiplicity = 1
  Electrons    = 20
  Nalpha       = 10
  Nbeta        = 10

  ==> Algorithm <==

  SCF Algorithm Type is DF.
  DIIS enabled.
  MOM disabled.
  Fractional occupation disabled.
  Guess Type is SAD.
  Energy threshold   = 1.00e-08
  Density threshold  = 1.00e-06
  Integral threshold = 0.00e+00

  ==> Primary Basis <==

  Basis Set: STO-3G
    Blend: STO-3G
    Number of shells: 12
    Number of basis function: 16
    Number of Cartesian functions: 16
    Spherical Harmonics?: true
    Max angular momentum: 1

   => Loading Basis Set <=

    Name: (STO-3G AUX)
    Role: JKFIT
    Keyword: DF_BASIS_SCF
    atoms 1, 5     entry N          line   263 file /home/carlosborca/miniconda3/envs/CrystaLattE/share/psi4/basis/def2-svp-jkfit.gbs 
    atoms 2-4, 6-8 entry H          line    23 file /home/carlosborca/miniconda3/envs/CrystaLattE/share/psi4/basis/def2-svp-jkfit.gbs 

  ==> Pre-Iterations <==

   -------------------------------------------------------
    Irrep   Nso     Nmo     Nalpha   Nbeta   Ndocc  Nsocc
   -------------------------------------------------------
     A         16      16       0       0       0       0
   -------------------------------------------------------
    Total      16      16      10      10      10       0
   -------------------------------------------------------

  ==> Integral Setup <==

  DFHelper Memory: AOs need 0.001 GiB; user supplied 0.349 GiB. Using in-core AOs.

  ==> MemDFJK: Density-Fitted J/K Matrices <==

    J tasked:                   Yes
    K tasked:                   Yes
    wK tasked:                   No
    OpenMP threads:               4
    Memory [MiB]:               357
    Algorithm:                 Core
    Schwarz Cutoff:           1E-12
    Mask sparsity (%):       0.7812
    Fitting Condition:        1E-10

   => Auxiliary Basis Set <=

  Basis Set: (STO-3G AUX)
    Blend: DEF2-SVP-JKFIT
    Number of shells: 86
    Number of basis function: 262
    Number of Cartesian functions: 306
    Spherical Harmonics?: true
    Max angular momentum: 4

  Minimum eigenvalue in the overlap matrix is 2.5147679852E-01.
  Using Symmetric Orthogonalization.

  SCF Guess: Superposition of Atomic Densities via on-the-fly atomic UHF.

  ==> Iterations <==

                           Total Energy        Delta E     RMS |[F,P]|

   @DF-RHF iter SAD:  -109.17478620712362   -1.09175e+02   0.00000e+00 
   @DF-RHF iter   1:  -110.86430507037606   -1.68952e+00   1.42847e-02 DIIS
   @DF-RHF iter   2:  -110.90202608325787   -3.77210e-02   2.68562e-03 DIIS
   @DF-RHF iter   3:  -110.90314768848908   -1.12161e-03   5.60194e-04 DIIS
   @DF-RHF iter   4:  -110.90321505435007   -6.73659e-05   9.43708e-06 DIIS
   @DF-RHF iter   5:  -110.90321507675657   -2.24065e-08   2.04330e-06 DIIS
   @DF-RHF iter   6:  -110.90321507804143   -1.28486e-09   4.96358e-07 DIIS
  Energy and wave function converged.


  ==> Post-Iterations <==

    Orbital Energies [Eh]
    ---------------------

    Doubly Occupied:                                                      

       1A    -15.307362     2A    -15.278926     3A     -1.106965  
       4A     -1.081661     5A     -0.594002     6A     -0.591404  
       7A     -0.568124     8A     -0.562387     9A     -0.360429  
      10A     -0.334239  

    Virtual:                                                              

      11A      0.649044    12A      0.693581    13A      0.750709  
      14A      0.754015    15A      0.776083    16A      0.795954  

    Final Occupation by Irrep:
              A 
    DOCC [    10 ]

  @DF-RHF Final Energy:  -110.90321507804143

   => Energetics <=

    Nuclear Repulsion Energy =             39.8716733392647882
    One-Electron Energy =                -229.9787849097628225
    Two-Electron Energy =                  79.2038964924566073
    Total Energy =                       -110.9032150780414270

Computation Completed


Properties will be evaluated at   0.000000,   0.000000,   0.000000 [a0]

Properties computed using the SCF density matrix

  Nuclear Dipole Moment: [e a0]
     X:    27.7711      Y:    70.9498      Z:    22.4736

  Electronic Dipole Moment: [e a0]
     X:   -28.6080      Y:   -70.9411      Z:   -22.4141

  Dipole Moment: [e a0]
     X:    -0.8369      Y:     0.0087      Z:     0.0594     Total:     0.8390

  Dipole Moment: [D]
     X:    -2.1272      Y:     0.0221      Z:     0.1511     Total:     2.1326


*** tstop() called on Vanadium at Thu Sep 26 15:58:24 2019
Module time:
	user time   =       4.05 seconds =       0.07 minutes
	system time =       0.86 seconds =       0.01 minutes
	total time  =          1 seconds =       0.02 minutes
Total time:
	user time   =      33.00 seconds =       0.55 minutes
	system time =       5.98 seconds =       0.10 minutes
	total time  =         12 seconds =       0.20 minutes

       N-Body: Complex Energy (fragments = (2, 4), basis = (2, 4):  -110.90321507804143)

       N-Body: Computing complex (4/10) with fragments (2, 5) in the basis of fragments (2, 5).


*** tstart() called on Vanadium
*** at Thu Sep 26 15:58:24 2019

   => Loading Basis Set <=

    Name: STO-3G
    Role: ORBITAL
    Keyword: BASIS
    atoms 1, 5     entry N          line    71 file /home/carlosborca/miniconda3/envs/CrystaLattE/share/psi4/basis/sto-3g.gbs 
    atoms 2-4, 6-8 entry H          line    19 file /home/carlosborca/miniconda3/envs/CrystaLattE/share/psi4/basis/sto-3g.gbs 


         ---------------------------------------------------------
                                   SCF
               by Justin Turney, Rob Parrish, Andy Simmonett
                          and Daniel G. A. Smith
                              RHF Reference
                        4 Threads,    476 MiB Core
         ---------------------------------------------------------

  ==> Geometry <==

    Molecular point group: c1
    Full point group: C1

    Geometry (in Bohr), charge = 0, multiplicity = 1:

       Center              X                  Y                   Z               Mass       
    ------------   -----------------  -----------------  -----------------  -----------------
         N            3.928511960000     3.166464780000    -0.919107990000    14.003074004430
         H            2.394725200000     3.713277820000     0.000000000000     1.007825032230
         H            4.847619940000     4.700251540000    -1.465921030000     1.007825032230
         H            3.381698920000     2.247356790000    -2.452894750000     1.007825032230
         N            3.928511960000    -6.528775110000    -0.919107990000    14.003074004430
         H            2.394725200000    -5.981962070000     0.000000000000     1.007825032230
         H            4.847619940000    -4.994988350000    -1.465921030000     1.007825032230
         H            3.381698920000    -7.447883090000    -2.452894750000     1.007825032230

  Running in c1 symmetry.

  Rotational constants: A =      0.13380  B =      0.05985  C =      0.04168 [cm^-1]
  Rotational constants: A =   4011.19526  B =   1794.34026  C =   1249.63969 [MHz]
  Nuclear repulsion =   34.759369381365005

  Charge       = 0
  Multiplicity = 1
  Electrons    = 20
  Nalpha       = 10
  Nbeta        = 10

  ==> Algorithm <==

  SCF Algorithm Type is DF.
  DIIS enabled.
  MOM disabled.
  Fractional occupation disabled.
  Guess Type is SAD.
  Energy threshold   = 1.00e-08
  Density threshold  = 1.00e-06
  Integral threshold = 0.00e+00

  ==> Primary Basis <==

  Basis Set: STO-3G
    Blend: STO-3G
    Number of shells: 12
    Number of basis function: 16
    Number of Cartesian functions: 16
    Spherical Harmonics?: true
    Max angular momentum: 1

   => Loading Basis Set <=

    Name: (STO-3G AUX)
    Role: JKFIT
    Keyword: DF_BASIS_SCF
    atoms 1, 5     entry N          line   263 file /home/carlosborca/miniconda3/envs/CrystaLattE/share/psi4/basis/def2-svp-jkfit.gbs 
    atoms 2-4, 6-8 entry H          line    23 file /home/carlosborca/miniconda3/envs/CrystaLattE/share/psi4/basis/def2-svp-jkfit.gbs 

  ==> Pre-Iterations <==

   -------------------------------------------------------
    Irrep   Nso     Nmo     Nalpha   Nbeta   Ndocc  Nsocc
   -------------------------------------------------------
     A         16      16       0       0       0       0
   -------------------------------------------------------
    Total      16      16      10      10      10       0
   -------------------------------------------------------

  ==> Integral Setup <==

  DFHelper Memory: AOs need 0.001 GiB; user supplied 0.349 GiB. Using in-core AOs.

  ==> MemDFJK: Density-Fitted J/K Matrices <==

    J tasked:                   Yes
    K tasked:                   Yes
    wK tasked:                   No
    OpenMP threads:               4
    Memory [MiB]:               357
    Algorithm:                 Core
    Schwarz Cutoff:           1E-12
    Mask sparsity (%):       3.9062
    Fitting Condition:        1E-10

   => Auxiliary Basis Set <=

  Basis Set: (STO-3G AUX)
    Blend: DEF2-SVP-JKFIT
    Number of shells: 86
    Number of basis function: 262
    Number of Cartesian functions: 306
    Spherical Harmonics?: true
    Max angular momentum: 4

  Minimum eigenvalue in the overlap matrix is 2.5419968781E-01.
  Using Symmetric Orthogonalization.

  SCF Guess: Superposition of Atomic Densities via on-the-fly atomic UHF.

  ==> Iterations <==

                           Total Energy        Delta E     RMS |[F,P]|

   @DF-RHF iter SAD:  -109.17125053270601   -1.09171e+02   0.00000e+00 
   @DF-RHF iter   1:  -110.85923499222031   -1.68798e+00   1.47019e-02 DIIS
   @DF-RHF iter   2:  -110.89874034934888   -3.95054e-02   2.78392e-03 DIIS
   @DF-RHF iter   3:  -110.89991905240377   -1.17870e-03   5.75165e-04 DIIS
   @DF-RHF iter   4:  -110.89998954692373   -7.04945e-05   5.47417e-06 DIIS
   @DF-RHF iter   5:  -110.89998955893572   -1.20120e-08   6.83635e-07 DIIS
   @DF-RHF iter   6:  -110.89998955899128   -5.55644e-11   1.03908e-07 DIIS
  Energy and wave function converged.


  ==> Post-Iterations <==

    Orbital Energies [Eh]
    ---------------------

    Doubly Occupied:                                                      

       1A    -15.304727     2A    -15.296124     3A     -1.104263  
       4A     -1.095763     5A     -0.589131     6A     -0.588647  
       7A     -0.580481     8A     -0.579991     9A     -0.355992  
      10A     -0.347457  

    Virtual:                                                              

      11A      0.659138    12A      0.668328    13A      0.754842  
      14A      0.755672    15A      0.763673    16A      0.764746  

    Final Occupation by Irrep:
              A 
    DOCC [    10 ]

  @DF-RHF Final Energy:  -110.89998955899128

   => Energetics <=

    Nuclear Repulsion Energy =             34.7593693813650049
    One-Electron Energy =                -219.6335723917612199
    Two-Electron Energy =                  73.9742134514049496
    Total Energy =                       -110.8999895589912796

Computation Completed


Properties will be evaluated at   0.000000,   0.000000,   0.000000 [a0]

Properties computed using the SCF density matrix

  Nuclear Dipole Moment: [e a0]
     X:    76.2473      Y:   -31.3001      Z:   -20.7051

  Electronic Dipole Moment: [e a0]
     X:   -77.0328      Y:    32.0985      Z:    19.9192

  Dipole Moment: [e a0]
     X:    -0.7855      Y:     0.7984      Z:    -0.7859     Total:     1.3683

  Dipole Moment: [D]
     X:    -1.9966      Y:     2.0292      Z:    -1.9976     Total:     3.4778


*** tstop() called on Vanadium at Thu Sep 26 15:58:26 2019
Module time:
	user time   =       4.14 seconds =       0.07 minutes
	system time =       0.84 seconds =       0.01 minutes
	total time  =          2 seconds =       0.03 minutes
Total time:
	user time   =      37.27 seconds =       0.62 minutes
	system time =       6.82 seconds =       0.11 minutes
	total time  =         14 seconds =       0.23 minutes

       N-Body: Complex Energy (fragments = (2, 5), basis = (2, 5):  -110.89998955899128)

       N-Body: Computing complex (5/10) with fragments (2, 3) in the basis of fragments (2, 3).


*** tstart() called on Vanadium
*** at Thu Sep 26 15:58:26 2019

   => Loading Basis Set <=

    Name: STO-3G
    Role: ORBITAL
    Keyword: BASIS
    atoms 1, 5     entry N          line    71 file /home/carlosborca/miniconda3/envs/CrystaLattE/share/psi4/basis/sto-3g.gbs 
    atoms 2-4, 6-8 entry H          line    19 file /home/carlosborca/miniconda3/envs/CrystaLattE/share/psi4/basis/sto-3g.gbs 


         ---------------------------------------------------------
                                   SCF
               by Justin Turney, Rob Parrish, Andy Simmonett
                          and Daniel G. A. Smith
                              RHF Reference
                        4 Threads,    476 MiB Core
         ---------------------------------------------------------

  ==> Geometry <==

    Molecular point group: c1
    Full point group: C1

    Geometry (in Bohr), charge = 0, multiplicity = 1:

       Center              X                  Y                   Z               Mass       
    ------------   -----------------  -----------------  -----------------  -----------------
         N            3.928511960000     3.166464780000    -0.919107990000    14.003074004430
         H            2.394725200000     3.713277820000     0.000000000000     1.007825032230
         H            4.847619940000     4.700251540000    -1.465921030000     1.007825032230
         H            3.381698920000     2.247356790000    -2.452894750000     1.007825032230
         N            3.166464780000    -0.919107990000     3.928511960000    14.003074004430
         H            2.247356790000    -2.452894750000     3.381698920000     1.007825032230
         H            3.713277820000     0.000000000000     2.394725200000     1.007825032230
         H            4.700251540000    -1.465921030000     4.847619940000     1.007825032230

  Running in c1 symmetry.

  Rotational constants: A =      0.16367  B =      0.10842  C =      0.06599 [cm^-1]
  Rotational constants: A =   4906.84480  B =   3250.32793  C =   1978.44545 [MHz]
  Nuclear repulsion =   39.871673339264788

  Charge       = 0
  Multiplicity = 1
  Electrons    = 20
  Nalpha       = 10
  Nbeta        = 10

  ==> Algorithm <==

  SCF Algorithm Type is DF.
  DIIS enabled.
  MOM disabled.
  Fractional occupation disabled.
  Guess Type is SAD.
  Energy threshold   = 1.00e-08
  Density threshold  = 1.00e-06
  Integral threshold = 0.00e+00

  ==> Primary Basis <==

  Basis Set: STO-3G
    Blend: STO-3G
    Number of shells: 12
    Number of basis function: 16
    Number of Cartesian functions: 16
    Spherical Harmonics?: true
    Max angular momentum: 1

   => Loading Basis Set <=

    Name: (STO-3G AUX)
    Role: JKFIT
    Keyword: DF_BASIS_SCF
    atoms 1, 5     entry N          line   263 file /home/carlosborca/miniconda3/envs/CrystaLattE/share/psi4/basis/def2-svp-jkfit.gbs 
    atoms 2-4, 6-8 entry H          line    23 file /home/carlosborca/miniconda3/envs/CrystaLattE/share/psi4/basis/def2-svp-jkfit.gbs 

  ==> Pre-Iterations <==

   -------------------------------------------------------
    Irrep   Nso     Nmo     Nalpha   Nbeta   Ndocc  Nsocc
   -------------------------------------------------------
     A         16      16       0       0       0       0
   -------------------------------------------------------
    Total      16      16      10      10      10       0
   -------------------------------------------------------

  ==> Integral Setup <==

  DFHelper Memory: AOs need 0.001 GiB; user supplied 0.349 GiB. Using in-core AOs.

  ==> MemDFJK: Density-Fitted J/K Matrices <==

    J tasked:                   Yes
    K tasked:                   Yes
    wK tasked:                   No
    OpenMP threads:               4
    Memory [MiB]:               357
    Algorithm:                 Core
    Schwarz Cutoff:           1E-12
    Mask sparsity (%):       0.7812
    Fitting Condition:        1E-10

   => Auxiliary Basis Set <=

  Basis Set: (STO-3G AUX)
    Blend: DEF2-SVP-JKFIT
    Number of shells: 86
    Number of basis function: 262
    Number of Cartesian functions: 306
    Spherical Harmonics?: true
    Max angular momentum: 4

  Minimum eigenvalue in the overlap matrix is 2.5147679852E-01.
  Using Symmetric Orthogonalization.

  SCF Guess: Superposition of Atomic Densities via on-the-fly atomic UHF.

  ==> Iterations <==

                           Total Energy        Delta E     RMS |[F,P]|

   @DF-RHF iter SAD:  -109.17478620710324   -1.09175e+02   0.00000e+00 
   @DF-RHF iter   1:  -110.86430507035649   -1.68952e+00   1.42847e-02 DIIS
   @DF-RHF iter   2:  -110.90202608323821   -3.77210e-02   2.68562e-03 DIIS
   @DF-RHF iter   3:  -110.90314768846942   -1.12161e-03   5.60194e-04 DIIS
   @DF-RHF iter   4:  -110.90321505433047   -6.73659e-05   9.43708e-06 DIIS
   @DF-RHF iter   5:  -110.90321507673696   -2.24065e-08   2.04330e-06 DIIS
   @DF-RHF iter   6:  -110.90321507802169   -1.28473e-09   4.96358e-07 DIIS
  Energy and wave function converged.


  ==> Post-Iterations <==

    Orbital Energies [Eh]
    ---------------------

    Doubly Occupied:                                                      

       1A    -15.307362     2A    -15.278926     3A     -1.106965  
       4A     -1.081661     5A     -0.594002     6A     -0.591404  
       7A     -0.568124     8A     -0.562387     9A     -0.360429  
      10A     -0.334239  

    Virtual:                                                              

      11A      0.649044    12A      0.693581    13A      0.750709  
      14A      0.754015    15A      0.776083    16A      0.795954  

    Final Occupation by Irrep:
              A 
    DOCC [    10 ]

  @DF-RHF Final Energy:  -110.90321507802169

   => Energetics <=

    Nuclear Repulsion Energy =             39.8716733392647882
    One-Electron Energy =                -229.9787849097642720
    Two-Electron Energy =                  79.2038964924777957
    Total Energy =                       -110.9032150780216881

Computation Completed


Properties will be evaluated at   0.000000,   0.000000,   0.000000 [a0]

Properties computed using the SCF density matrix

  Nuclear Dipole Moment: [e a0]
     X:    70.9498      Y:    22.4736      Z:    27.7711

  Electronic Dipole Moment: [e a0]
     X:   -70.9411      Y:   -22.4141      Z:   -28.6080

  Dipole Moment: [e a0]
     X:     0.0087      Y:     0.0594      Z:    -0.8369     Total:     0.8390

  Dipole Moment: [D]
     X:     0.0221      Y:     0.1511      Z:    -2.1272     Total:     2.1326


*** tstop() called on Vanadium at Thu Sep 26 15:58:28 2019
Module time:
	user time   =       4.08 seconds =       0.07 minutes
	system time =       0.83 seconds =       0.01 minutes
	total time  =          2 seconds =       0.03 minutes
Total time:
	user time   =      41.39 seconds =       0.69 minutes
	system time =       7.67 seconds =       0.13 minutes
	total time  =         16 seconds =       0.27 minutes

       N-Body: Complex Energy (fragments = (2, 3), basis = (2, 3):  -110.90321507802169)

       N-Body: Computing complex (6/10) with fragments (3, 4) in the basis of fragments (3, 4).


*** tstart() called on Vanadium
*** at Thu Sep 26 15:58:28 2019

   => Loading Basis Set <=

    Name: STO-3G
    Role: ORBITAL
    Keyword: BASIS
    atoms 1, 5     entry N          line    71 file /home/carlosborca/miniconda3/envs/CrystaLattE/share/psi4/basis/sto-3g.gbs 
    atoms 2-4, 6-8 entry H          line    19 file /home/carlosborca/miniconda3/envs/CrystaLattE/share/psi4/basis/sto-3g.gbs 


         ---------------------------------------------------------
                                   SCF
               by Justin Turney, Rob Parrish, Andy Simmonett
                          and Daniel G. A. Smith
                              RHF Reference
                        4 Threads,    476 MiB Core
         ---------------------------------------------------------

  ==> Geometry <==

    Molecular point group: c1
    Full point group: C1

    Geometry (in Bohr), charge = 0, multiplicity = 1:

       Center              X                  Y                   Z               Mass       
    ------------   -----------------  -----------------  -----------------  -----------------
         N            3.166464780000    -0.919107990000     3.928511960000    14.003074004430
         H            2.247356790000    -2.452894750000     3.381698920000     1.007825032230
         H            3.713277820000     0.000000000000     2.394725200000     1.007825032230
         H            4.700251540000    -1.465921030000     4.847619940000     1.007825032230
         N           -0.919107990000     3.928511960000     3.166464780000    14.003074004430
         H           -1.465921030000     4.847619940000     4.700251540000     1.007825032230
         H           -2.452894750000     3.381698920000     2.247356790000     1.007825032230
         H            0.000000000000     2.394725200000     3.713277820000     1.007825032230

  Running in c1 symmetry.

  Rotational constants: A =      0.16367  B =      0.10842  C =      0.06599 [cm^-1]
  Rotational constants: A =   4906.84480  B =   3250.32793  C =   1978.44545 [MHz]
  Nuclear repulsion =   39.871673339264781

  Charge       = 0
  Multiplicity = 1
  Electrons    = 20
  Nalpha       = 10
  Nbeta        = 10

  ==> Algorithm <==

  SCF Algorithm Type is DF.
  DIIS enabled.
  MOM disabled.
  Fractional occupation disabled.
  Guess Type is SAD.
  Energy threshold   = 1.00e-08
  Density threshold  = 1.00e-06
  Integral threshold = 0.00e+00

  ==> Primary Basis <==

  Basis Set: STO-3G
    Blend: STO-3G
    Number of shells: 12
    Number of basis function: 16
    Number of Cartesian functions: 16
    Spherical Harmonics?: true
    Max angular momentum: 1

   => Loading Basis Set <=

    Name: (STO-3G AUX)
    Role: JKFIT
    Keyword: DF_BASIS_SCF
    atoms 1, 5     entry N          line   263 file /home/carlosborca/miniconda3/envs/CrystaLattE/share/psi4/basis/def2-svp-jkfit.gbs 
    atoms 2-4, 6-8 entry H          line    23 file /home/carlosborca/miniconda3/envs/CrystaLattE/share/psi4/basis/def2-svp-jkfit.gbs 

  ==> Pre-Iterations <==

   -------------------------------------------------------
    Irrep   Nso     Nmo     Nalpha   Nbeta   Ndocc  Nsocc
   -------------------------------------------------------
     A         16      16       0       0       0       0
   -------------------------------------------------------
    Total      16      16      10      10      10       0
   -------------------------------------------------------

  ==> Integral Setup <==

  DFHelper Memory: AOs need 0.001 GiB; user supplied 0.349 GiB. Using in-core AOs.

  ==> MemDFJK: Density-Fitted J/K Matrices <==

    J tasked:                   Yes
    K tasked:                   Yes
    wK tasked:                   No
    OpenMP threads:               4
    Memory [MiB]:               357
    Algorithm:                 Core
    Schwarz Cutoff:           1E-12
    Mask sparsity (%):       0.7812
    Fitting Condition:        1E-10

   => Auxiliary Basis Set <=

  Basis Set: (STO-3G AUX)
    Blend: DEF2-SVP-JKFIT
    Number of shells: 86
    Number of basis function: 262
    Number of Cartesian functions: 306
    Spherical Harmonics?: true
    Max angular momentum: 4

  Minimum eigenvalue in the overlap matrix is 2.5147679852E-01.
  Using Symmetric Orthogonalization.

  SCF Guess: Superposition of Atomic Densities via on-the-fly atomic UHF.

  ==> Iterations <==

                           Total Energy        Delta E     RMS |[F,P]|

   @DF-RHF iter SAD:  -109.17478620709619   -1.09175e+02   0.00000e+00 
   @DF-RHF iter   1:  -110.86430507034947   -1.68952e+00   1.42847e-02 DIIS
   @DF-RHF iter   2:  -110.90202608323111   -3.77210e-02   2.68562e-03 DIIS
   @DF-RHF iter   3:  -110.90314768846223   -1.12161e-03   5.60194e-04 DIIS
   @DF-RHF iter   4:  -110.90321505432327   -6.73659e-05   9.43708e-06 DIIS
   @DF-RHF iter   5:  -110.90321507672962   -2.24064e-08   2.04330e-06 DIIS
   @DF-RHF iter   6:  -110.90321507801455   -1.28493e-09   4.96358e-07 DIIS
  Energy and wave function converged.


  ==> Post-Iterations <==

    Orbital Energies [Eh]
    ---------------------

    Doubly Occupied:                                                      

       1A    -15.307362     2A    -15.278926     3A     -1.106965  
       4A     -1.081661     5A     -0.594002     6A     -0.591404  
       7A     -0.568124     8A     -0.562387     9A     -0.360429  
      10A     -0.334239  

    Virtual:                                                              

      11A      0.649044    12A      0.693581    13A      0.750709  
      14A      0.754015    15A      0.776083    16A      0.795954  

    Final Occupation by Irrep:
              A 
    DOCC [    10 ]

  @DF-RHF Final Energy:  -110.90321507801455

   => Energetics <=

    Nuclear Repulsion Energy =             39.8716733392647811
    One-Electron Energy =                -229.9787849097438652
    Two-Electron Energy =                  79.2038964924645228
    Total Energy =                       -110.9032150780145543

Computation Completed


Properties will be evaluated at   0.000000,   0.000000,   0.000000 [a0]

Properties computed using the SCF density matrix

  Nuclear Dipole Moment: [e a0]
     X:    22.4736      Y:    27.7711      Z:    70.9498

  Electronic Dipole Moment: [e a0]
     X:   -22.4141      Y:   -28.6080      Z:   -70.9411

  Dipole Moment: [e a0]
     X:     0.0594      Y:    -0.8369      Z:     0.0087     Total:     0.8390

  Dipole Moment: [D]
     X:     0.1511      Y:    -2.1272      Z:     0.0221     Total:     2.1326


*** tstop() called on Vanadium at Thu Sep 26 15:58:30 2019
Module time:
	user time   =       4.16 seconds =       0.07 minutes
	system time =       0.78 seconds =       0.01 minutes
	total time  =          2 seconds =       0.03 minutes
Total time:
	user time   =      45.60 seconds =       0.76 minutes
	system time =       8.46 seconds =       0.14 minutes
	total time  =         18 seconds =       0.30 minutes

       N-Body: Complex Energy (fragments = (3, 4), basis = (3, 4):  -110.90321507801455)

       N-Body: Computing complex (7/10) with fragments (4, 5) in the basis of fragments (4, 5).


*** tstart() called on Vanadium
*** at Thu Sep 26 15:58:30 2019

   => Loading Basis Set <=

    Name: STO-3G
    Role: ORBITAL
    Keyword: BASIS
    atoms 1, 5     entry N          line    71 file /home/carlosborca/miniconda3/envs/CrystaLattE/share/psi4/basis/sto-3g.gbs 
    atoms 2-4, 6-8 entry H          line    19 file /home/carlosborca/miniconda3/envs/CrystaLattE/share/psi4/basis/sto-3g.gbs 


         ---------------------------------------------------------
                                   SCF
               by Justin Turney, Rob Parrish, Andy Simmonett
                          and Daniel G. A. Smith
                              RHF Reference
                        4 Threads,    476 MiB Core
         ---------------------------------------------------------

  ==> Geometry <==

    Molecular point group: c1
    Full point group: C1

    Geometry (in Bohr), charge = 0, multiplicity = 1:

       Center              X                  Y                   Z               Mass       
[...]
      27A      0.740548    28A      0.754064    29A      0.768400  
      30A      0.779161    31A      0.782040    32A      0.794069  

    Final Occupation by Irrep:
              A 
    DOCC [    20 ]

  @DF-RHF Final Energy:  -221.80184021981808

   => Energetics <=

    Nuclear Repulsion Energy =            129.5688228081438638
    One-Electron Energy =                -559.0526823528451814
    Two-Electron Energy =                 207.6820193248832425
    Total Energy =                       -221.8018402198180752

Computation Completed


Properties will be evaluated at   0.000000,   0.000000,   0.000000 [a0]

Properties computed using the SCF density matrix

  Nuclear Dipole Moment: [e a0]
     X:    93.4233      Y:   -57.3028      Z:     1.7684

  Electronic Dipole Moment: [e a0]
     X:   -93.4048      Y:    58.1586      Z:    -2.5929

  Dipole Moment: [e a0]
     X:     0.0186      Y:     0.8559      Z:    -0.8245     Total:     1.1886

  Dipole Moment: [D]
     X:     0.0472      Y:     2.1754      Z:    -2.0957     Total:     3.0210


*** tstop() called on Vanadium at Thu Sep 26 15:59:09 2019
Module time:
	user time   =       5.72 seconds =       0.10 minutes
	system time =       0.80 seconds =       0.01 minutes
	total time  =          2 seconds =       0.03 minutes
Total time:
	user time   =     136.38 seconds =       2.27 minutes
	system time =      24.09 seconds =       0.40 minutes
	total time  =         57 seconds =       0.95 minutes

       N-Body: Complex Energy (fragments = (1, 2, 3, 5), basis = (1, 2, 3, 5):  -221.80184021981808)

       N-Body: Computing complex (5/5) with fragments (1, 2, 4, 5) in the basis of fragments (1, 2, 4, 5).


*** tstart() called on Vanadium
*** at Thu Sep 26 15:59:09 2019

   => Loading Basis Set <=

    Name: STO-3G
    Role: ORBITAL
    Keyword: BASIS
    atoms 1, 5, 9, 13            entry N          line    71 file /home/carlosborca/miniconda3/envs/CrystaLattE/share/psi4/basis/sto-3g.gbs 
    atoms 2-4, 6-8, 10-12, 14-16 entry H          line    19 file /home/carlosborca/miniconda3/envs/CrystaLattE/share/psi4/basis/sto-3g.gbs 


         ---------------------------------------------------------
                                   SCF
               by Justin Turney, Rob Parrish, Andy Simmonett
                          and Daniel G. A. Smith
                              RHF Reference
                        4 Threads,    476 MiB Core
         ---------------------------------------------------------

  ==> Geometry <==

    Molecular point group: c1
    Full point group: C1

    Geometry (in Bohr), charge = 0, multiplicity = 1:

       Center              X                  Y                   Z               Mass       
    ------------   -----------------  -----------------  -----------------  -----------------
         N           -1.681155160000    -1.681155160000    -1.681155160000    14.003074004430
         H           -2.600263150000    -0.147368400000    -1.134342120000     1.007825032230
         H           -1.134342120000    -2.600263150000    -0.147368400000     1.007825032230
         H           -0.147368400000    -1.134342120000    -2.600263150000     1.007825032230
         N            3.928511960000     3.166464780000    -0.919107990000    14.003074004430
         H            2.394725200000     3.713277820000     0.000000000000     1.007825032230
         H            4.847619940000     4.700251540000    -1.465921030000     1.007825032230
         H            3.381698920000     2.247356790000    -2.452894750000     1.007825032230
         N           -0.919107990000     3.928511960000     3.166464780000    14.003074004430
         H           -1.465921030000     4.847619940000     4.700251540000     1.007825032230
         H           -2.452894750000     3.381698920000     2.247356790000     1.007825032230
         H            0.000000000000     2.394725200000     3.713277820000     1.007825032230
         N            3.928511960000    -6.528775110000    -0.919107990000    14.003074004430
         H            2.394725200000    -5.981962070000     0.000000000000     1.007825032230
         H            4.847619940000    -4.994988350000    -1.465921030000     1.007825032230
         H            3.381698920000    -7.447883090000    -2.452894750000     1.007825032230

  Running in c1 symmetry.

  Rotational constants: A =      0.09007  B =      0.03898  C =      0.03183 [cm^-1]
  Rotational constants: A =   2700.16168  B =   1168.58611  C =    954.35814 [MHz]
  Nuclear repulsion =  124.101106219931353

  Charge       = 0
  Multiplicity = 1
  Electrons    = 40
  Nalpha       = 20
  Nbeta        = 20

  ==> Algorithm <==

  SCF Algorithm Type is DF.
  DIIS enabled.
  MOM disabled.
  Fractional occupation disabled.
  Guess Type is SAD.
  Energy threshold   = 1.00e-08
  Density threshold  = 1.00e-06
  Integral threshold = 0.00e+00

  ==> Primary Basis <==

  Basis Set: STO-3G
    Blend: STO-3G
    Number of shells: 24
    Number of basis function: 32
    Number of Cartesian functions: 32
    Spherical Harmonics?: true
    Max angular momentum: 1

   => Loading Basis Set <=

    Name: (STO-3G AUX)
    Role: JKFIT
    Keyword: DF_BASIS_SCF
    atoms 1, 5, 9, 13            entry N          line   263 file /home/carlosborca/miniconda3/envs/CrystaLattE/share/psi4/basis/def2-svp-jkfit.gbs 
    atoms 2-4, 6-8, 10-12, 14-16 entry H          line    23 file /home/carlosborca/miniconda3/envs/CrystaLattE/share/psi4/basis/def2-svp-jkfit.gbs 

  ==> Pre-Iterations <==

   -------------------------------------------------------
    Irrep   Nso     Nmo     Nalpha   Nbeta   Ndocc  Nsocc
   -------------------------------------------------------
     A         32      32       0       0       0       0
   -------------------------------------------------------
    Total      32      32      20      20      20       0
   -------------------------------------------------------

  ==> Integral Setup <==

  DFHelper Memory: AOs need 0.006 GiB; user supplied 0.349 GiB. Using in-core AOs.

  ==> MemDFJK: Density-Fitted J/K Matrices <==

    J tasked:                   Yes
    K tasked:                   Yes
    wK tasked:                   No
    OpenMP threads:               4
    Memory [MiB]:               357
    Algorithm:                 Core
    Schwarz Cutoff:           1E-12
    Mask sparsity (%):       3.9062
    Fitting Condition:        1E-10

   => Auxiliary Basis Set <=

  Basis Set: (STO-3G AUX)
    Blend: DEF2-SVP-JKFIT
    Number of shells: 172
    Number of basis function: 524
    Number of Cartesian functions: 612
    Spherical Harmonics?: true
    Max angular momentum: 4

  Minimum eigenvalue in the overlap matrix is 2.4580857291E-01.
  Using Symmetric Orthogonalization.

  SCF Guess: Superposition of Atomic Densities via on-the-fly atomic UHF.

  ==> Iterations <==

                           Total Energy        Delta E     RMS |[F,P]|

   @DF-RHF iter SAD:  -218.34791825301423   -2.18348e+02   0.00000e+00 
   @DF-RHF iter   1:  -221.72222033587815   -3.37430e+00   1.02815e-02 DIIS
   @DF-RHF iter   2:  -221.79976319839281   -7.75429e-02   1.94457e-03 DIIS
   @DF-RHF iter   3:  -221.80208509715158   -2.32190e-03   4.03328e-04 DIIS
   @DF-RHF iter   4:  -221.80222436413351   -1.39267e-04   6.08265e-06 DIIS
   @DF-RHF iter   5:  -221.80222440382005   -3.96865e-08   1.62957e-06 DIIS
   @DF-RHF iter   6:  -221.80222440744870   -3.62866e-09   3.68247e-07 DIIS
  Energy and wave function converged.


  ==> Post-Iterations <==

    Orbital Energies [Eh]
    ---------------------

    Doubly Occupied:                                                      

       1A    -15.318751     2A    -15.313918     3A    -15.298788  
       4A    -15.292089     5A     -1.118619     6A     -1.113162  
       7A     -1.098239     8A     -1.094755     9A     -0.606724  
      10A     -0.604829    11A     -0.599480    12A     -0.596272  
      13A     -0.582355    14A     -0.582008    15A     -0.580333  
      16A     -0.575173    17A     -0.371683    18A     -0.364419  
      19A     -0.349861    20A     -0.347107  

    Virtual:                                                              

      21A      0.606727    22A      0.648006    23A      0.668269  
      24A      0.686683    25A      0.722799    26A      0.736531  
      27A      0.741554    28A      0.762201    29A      0.766397  
      30A      0.776605    31A      0.785917    32A      0.791105  

    Final Occupation by Irrep:
              A 
    DOCC [    20 ]

  @DF-RHF Final Energy:  -221.80222440744870

   => Energetics <=

    Nuclear Repulsion Energy =            124.1011062199313528
    One-Electron Energy =                -548.1895424425298415
    Two-Electron Energy =                 202.2862118151497839
    Total Energy =                       -221.8022244074487048

Computation Completed


Properties will be evaluated at   0.000000,   0.000000,   0.000000 [a0]

Properties computed using the SCF density matrix

  Nuclear Dipole Moment: [e a0]
     X:    50.2446      Y:    -8.8266      Z:    -3.5291

  Electronic Dipole Moment: [e a0]
     X:   -51.0678      Y:     9.6420      Z:     3.5915

  Dipole Moment: [e a0]
     X:    -0.8232      Y:     0.8154      Z:     0.0624     Total:     1.1604

  Dipole Moment: [D]
     X:    -2.0923      Y:     2.0726      Z:     0.1586     Total:     2.9494


*** tstop() called on Vanadium at Thu Sep 26 15:59:12 2019
Module time:
	user time   =       5.56 seconds =       0.09 minutes
	system time =       0.93 seconds =       0.02 minutes
	total time  =          3 seconds =       0.05 minutes
Total time:
	user time   =     141.95 seconds =       2.37 minutes
	system time =      25.07 seconds =       0.42 minutes
	total time  =         60 seconds =       1.00 minutes

       N-Body: Complex Energy (fragments = (1, 2, 4, 5), basis = (1, 2, 4, 5):  -221.80222440744870)

   ==> N-Body: Now computing 5-body complexes <==


       N-Body: Computing complex (1/1) with fragments (1, 2, 3, 4, 5) in the basis of fragments (1, 2, 3, 4, 5).


*** tstart() called on Vanadium
*** at Thu Sep 26 15:59:12 2019

   => Loading Basis Set <=

    Name: STO-3G
    Role: ORBITAL
    Keyword: BASIS
    atoms 1, 5, 9, 13, 17               entry N          line    71 file /home/carlosborca/miniconda3/envs/CrystaLattE/share/psi4/basis/sto-3g.gbs 
    atoms 2-4, 6-8, 10-12, 14-16, 18-20 entry H          line    19 file /home/carlosborca/miniconda3/envs/CrystaLattE/share/psi4/basis/sto-3g.gbs 


         ---------------------------------------------------------
                                   SCF
               by Justin Turney, Rob Parrish, Andy Simmonett
                          and Daniel G. A. Smith
                              RHF Reference
                        4 Threads,    476 MiB Core
         ---------------------------------------------------------

  ==> Geometry <==

    Molecular point group: c1
    Full point group: C1

    Geometry (in Bohr), charge = 0, multiplicity = 1:

       Center              X                  Y                   Z               Mass       
    ------------   -----------------  -----------------  -----------------  -----------------
         N           -1.681155160000    -1.681155160000    -1.681155160000    14.003074004430
         H           -2.600263150000    -0.147368400000    -1.134342120000     1.007825032230
         H           -1.134342120000    -2.600263150000    -0.147368400000     1.007825032230
         H           -0.147368400000    -1.134342120000    -2.600263150000     1.007825032230
         N            3.928511960000     3.166464780000    -0.919107990000    14.003074004430
         H            2.394725200000     3.713277820000     0.000000000000     1.007825032230
         H            4.847619940000     4.700251540000    -1.465921030000     1.007825032230
         H            3.381698920000     2.247356790000    -2.452894750000     1.007825032230
         N            3.166464780000    -0.919107990000     3.928511960000    14.003074004430
         H            2.247356790000    -2.452894750000     3.381698920000     1.007825032230
         H            3.713277820000     0.000000000000     2.394725200000     1.007825032230
         H            4.700251540000    -1.465921030000     4.847619940000     1.007825032230
         N           -0.919107990000     3.928511960000     3.166464780000    14.003074004430
         H           -1.465921030000     4.847619940000     4.700251540000     1.007825032230
         H           -2.452894750000     3.381698920000     2.247356790000     1.007825032230
         H            0.000000000000     2.394725200000     3.713277820000     1.007825032230
         N            3.928511960000    -6.528775110000    -0.919107990000    14.003074004430
         H            2.394725200000    -5.981962070000     0.000000000000     1.007825032230
         H            4.847619940000    -4.994988350000    -1.465921030000     1.007825032230
         H            3.381698920000    -7.447883090000    -2.452894750000     1.007825032230

  Running in c1 symmetry.

  Rotational constants: A =      0.05430  B =      0.03392  C =      0.02816 [cm^-1]
  Rotational constants: A =   1627.73706  B =   1016.82684  C =    844.19592 [MHz]
  Nuclear repulsion =  194.643469344376712

  Charge       = 0
  Multiplicity = 1
  Electrons    = 50
  Nalpha       = 25
  Nbeta        = 25

  ==> Algorithm <==

  SCF Algorithm Type is DF.
  DIIS enabled.
  MOM disabled.
  Fractional occupation disabled.
  Guess Type is SAD.
  Energy threshold   = 1.00e-08
  Density threshold  = 1.00e-06
  Integral threshold = 0.00e+00

  ==> Primary Basis <==

  Basis Set: STO-3G
    Blend: STO-3G
    Number of shells: 30
    Number of basis function: 40
    Number of Cartesian functions: 40
    Spherical Harmonics?: true
    Max angular momentum: 1

   => Loading Basis Set <=

    Name: (STO-3G AUX)
    Role: JKFIT
    Keyword: DF_BASIS_SCF
    atoms 1, 5, 9, 13, 17               entry N          line   263 file /home/carlosborca/miniconda3/envs/CrystaLattE/share/psi4/basis/def2-svp-jkfit.gbs 
    atoms 2-4, 6-8, 10-12, 14-16, 18-20 entry H          line    23 file /home/carlosborca/miniconda3/envs/CrystaLattE/share/psi4/basis/def2-svp-jkfit.gbs 

  ==> Pre-Iterations <==

   -------------------------------------------------------
    Irrep   Nso     Nmo     Nalpha   Nbeta   Ndocc  Nsocc
   -------------------------------------------------------
     A         40      40       0       0       0       0
   -------------------------------------------------------
    Total      40      40      25      25      25       0
   -------------------------------------------------------

  ==> Integral Setup <==

  DFHelper Memory: AOs need 0.011 GiB; user supplied 0.349 GiB. Using in-core AOs.

  ==> MemDFJK: Density-Fitted J/K Matrices <==

    J tasked:                   Yes
    K tasked:                   Yes
    wK tasked:                   No
    OpenMP threads:               4
    Memory [MiB]:               357
    Algorithm:                 Core
    Schwarz Cutoff:           1E-12
    Mask sparsity (%):       3.0000
    Fitting Condition:        1E-10

   => Auxiliary Basis Set <=

  Basis Set: (STO-3G AUX)
    Blend: DEF2-SVP-JKFIT
    Number of shells: 215
    Number of basis function: 655
    Number of Cartesian functions: 765
    Spherical Harmonics?: true
    Max angular momentum: 4

  Minimum eigenvalue in the overlap matrix is 2.4566979047E-01.
  Using Symmetric Orthogonalization.

  SCF Guess: Superposition of Atomic Densities via on-the-fly atomic UHF.

  ==> Iterations <==

                           Total Energy        Delta E     RMS |[F,P]|

   @DF-RHF iter SAD:  -272.94187091030983   -2.72942e+02   0.00000e+00 
   @DF-RHF iter   1:  -277.16179050352611   -4.21992e+00   9.02720e-03 DIIS
   @DF-RHF iter   2:  -277.25572379054267   -9.39333e-02   1.70394e-03 DIIS
   @DF-RHF iter   3:  -277.25854788476147   -2.82409e-03   3.55201e-04 DIIS
   @DF-RHF iter   4:  -277.25871775865306   -1.69874e-04   7.40794e-06 DIIS
   @DF-RHF iter   5:  -277.25871784535178   -8.66987e-08   1.60593e-06 DIIS
   @DF-RHF iter   6:  -277.25871785012998   -4.77820e-09   3.62424e-07 DIIS
  Energy and wave function converged.


  ==> Post-Iterations <==

    Orbital Energies [Eh]
    ---------------------

    Doubly Occupied:                                                      

       1A    -15.315990     2A    -15.307605     3A    -15.299108  
       4A    -15.297525     5A    -15.297202     6A     -1.115790  
       7A     -1.107144     8A     -1.105276     9A     -1.098792  
      10A     -1.097615    11A     -0.605140    12A     -0.602375  
      13A     -0.601532    14A     -0.591848    15A     -0.591049  
      16A     -0.587513    17A     -0.585651    18A     -0.584328  
      19A     -0.574197    20A     -0.573283    21A     -0.366378  
      22A     -0.359574    23A     -0.358793    24A     -0.357824  
      25A     -0.347542  

    Virtual:                                                              

      26A      0.589596    27A      0.642027    28A      0.667213  
      29A      0.673771    30A      0.688221    31A      0.726715  
      32A      0.735139    33A      0.753200    34A      0.762176  
      35A      0.769965    36A      0.770463    37A      0.779700  
      38A      0.783886    39A      0.790520    40A      0.791649  

    Final Occupation by Irrep:
              A 
    DOCC [    25 ]

  @DF-RHF Final Energy:  -277.25871785012998

   => Energetics <=

    Nuclear Repulsion Energy =            194.6434693443767117
    One-Electron Energy =                -764.3462361809481536
    Two-Electron Energy =                 292.4440489864414303
    Total Energy =                       -277.2587178501299832

Computation Completed


Properties will be evaluated at   0.000000,   0.000000,   0.000000 [a0]

Properties computed using the SCF density matrix

  Nuclear Dipole Moment: [e a0]
     X:    83.0708      Y:   -19.1791      Z:    34.5946

  Electronic Dipole Moment: [e a0]
     X:   -83.4260      Y:    19.6111      Z:   -34.9566

  Dipole Moment: [e a0]
     X:    -0.3553      Y:     0.4320      Z:    -0.3620     Total:     0.6663

  Dipole Moment: [D]
     X:    -0.9030      Y:     1.0979      Z:    -0.9202     Total:     1.6935


*** tstop() called on Vanadium at Thu Sep 26 15:59:15 2019
Module time:
	user time   =       6.65 seconds =       0.11 minutes
	system time =       1.05 seconds =       0.02 minutes
	total time  =          3 seconds =       0.05 minutes
Total time:
	user time   =     148.67 seconds =       2.48 minutes
	system time =      26.12 seconds =       0.44 minutes
	total time  =         63 seconds =       1.05 minutes

       N-Body: Complex Energy (fragments = (1, 2, 3, 4, 5), basis = (1, 2, 3, 4, 5):  -277.25871785012998)

   ==> N-Body: Non-Counterpoise Corrected (NoCP) energies <==

   n-Body     Total Energy [Eh]       I.E. [kcal/mol]      Delta [kcal/mol]
        1     -277.249826795808        0.000000000000        0.000000000000
        2     -277.258089943750       -5.185203617002       -5.185203617002
        3     -277.258721070020       -5.581241330314       -0.396037713312
        4     -277.258717521229       -5.579014430466        0.002226899848
        5     -277.258717850130       -5.579220818903       -0.000206388437

   => Loading Basis Set <=

    Name: DEF2-SVP
    Role: ORBITAL
    Keyword: BASIS
    atoms 1, 5, 9, 13, 17               entry N          line   110 file /home/carlosborca/miniconda3/envs/CrystaLattE/share/psi4/basis/def2-svp.gbs 
    atoms 2-4, 6-8, 10-12, 14-16, 18-20 entry H          line    15 file /home/carlosborca/miniconda3/envs/CrystaLattE/share/psi4/basis/def2-svp.gbs 


    Psi4 stopped on: Thursday, 26 September 2019 03:59PM
    Psi4 wall time for execution: 0:01:03.88

*** Psi4 exiting successfully. Buy a developer a beer!
