
    -----------------------------------------------------------------------
          Psi4: An Open-Source Ab Initio Electronic Structure Package
                               Psi4 1.4a2.dev37 

                         Git: Rev {master} a6305a1 


    R. M. Parrish, L. A. Burns, D. G. A. Smith, A. C. Simmonett,
    A. E. DePrince III, E. G. Hohenstein, U. Bozkaya, A. Yu. Sokolov,
    R. Di Remigio, R. M. Richard, J. F. Gonthier, A. M. James,
    H. R. McAlexander, A. Kumar, M. Saitow, X. Wang, B. P. Pritchard,
    P. Verma, H. F. Schaefer III, K. Patkowski, R. A. King, E. F. Valeev,
    F. A. Evangelista, J. M. Turney, T. D. Crawford, and C. D. Sherrill,
    J. Chem. Theory Comput. 13(7) pp 3185--3197 (2017).
    (doi: 10.1021/acs.jctc.7b00174)


                         Additional Contributions by
    P. Kraus, H. Kruse, M. H. Lechner, M. C. Schieber, R. A. Shaw,
    A. Alenaizan, R. Galvelis, Z. L. Glick, S. Lehtola, and J. P. Misiewicz

    -----------------------------------------------------------------------


    Psi4 started on: Thursday, 26 September 2019 03:08PM

    Process ID: 1232
    Host:       Vanadium
    PSIDATADIR: /home/carlosborca/miniconda3/envs/CrystaLattE/share/psi4
    Memory:     500.0 MiB
    Threads:    4
    
  ==> Input File <==

--------------------------------------------------------------------------
# PSI4 file produced by CrystaLattE

# Psithon input for N-mer:      5mer-0+1+2+3+4
# Number of replicas:           3
# Priority index for input:     1.44182007e-22
# Minimum monomer separations:  2.428  2.428  2.428  2.588  2.588  2.588  2.588  2.588  3.945  5.012 
# COM priority index for input: 3.24350205e-27
# Minimum COM separations:      3.418  3.418  3.418  3.883  3.883  3.883  3.883  3.883  5.131  6.434 

memory 500 MB

molecule Pentamer_0_1_2_3_4 {
  N           -1.68115516      -1.68115516      -1.68115516 
  H           -2.60026315      -0.14736840      -1.13434212 
  H           -1.13434212      -2.60026315      -0.14736840 
  H           -0.14736840      -1.13434212      -2.60026315 
--
  N            3.92851196       3.16646478      -0.91910799 
  H            2.39472520       3.71327782       0.00000000 
  H            4.84761994       4.70025154      -1.46592103 
  H            3.38169892       2.24735679      -2.45289475 
--
  N            3.16646478      -0.91910799       3.92851196 
  H            2.24735679      -2.45289475       3.38169892 
  H            3.71327782       0.00000000       2.39472520 
  H            4.70025154      -1.46592103       4.84761994 
--
  N           -0.91910799       3.92851196       3.16646478 
  H           -1.46592103       4.84761994       4.70025154 
  H           -2.45289475       3.38169892       2.24735679 
  H            0.00000000       2.39472520       3.71327782 
--
  N            3.92851196      -6.52877511      -0.91910799 
  H            2.39472520      -5.98196207       0.00000000 
  H            4.84761994      -4.99498835      -1.46592103 
  H            3.38169892      -7.44788309      -2.45289475 
units = au
no_com
no_reorient
}

set {
  e_convergence 8
  scf_type df
  mp2_type df
  cc_type df
  freeze_core true
}

energy('scf/STO-3G', bsse_type = 'cp')

--------------------------------------------------------------------------

  Memory set to 476.837 MiB by Python driver.


   ===> N-Body Interaction Abacus <===
        BSSE Treatment:                     cp
        Number of 1-body computations:     10
        Number of 2-body computations:     10
        Number of 3-body computations:     10
        Number of 4-body computations:     5
        Number of 5-body computations:     1

   ==> N-Body: Now computing 1-body complexes <==


       N-Body: Computing complex (1/10) with fragments (1,) in the basis of fragments (1,).


*** tstart() called on Vanadium
*** at Thu Sep 26 15:08:42 2019

   => Loading Basis Set <=

    Name: STO-3G
    Role: ORBITAL
    Keyword: BASIS
    atoms 1   entry N          line    71 file /home/carlosborca/miniconda3/envs/CrystaLattE/share/psi4/basis/sto-3g.gbs 
    atoms 2-4 entry H          line    19 file /home/carlosborca/miniconda3/envs/CrystaLattE/share/psi4/basis/sto-3g.gbs 


         ---------------------------------------------------------
                                   SCF
               by Justin Turney, Rob Parrish, Andy Simmonett
                          and Daniel G. A. Smith
                              RHF Reference
                        4 Threads,    476 MiB Core
         ---------------------------------------------------------

  ==> Geometry <==

    Molecular point group: c1
    Full point group: C1

    Geometry (in Bohr), charge = 0, multiplicity = 1:

       Center              X                  Y                   Z               Mass       
    ------------   -----------------  -----------------  -----------------  -----------------
         N           -1.681155160000    -1.681155160000    -1.681155160000    14.003074004430
         H           -2.600263150000    -0.147368400000    -1.134342120000     1.007825032230
         H           -1.134342120000    -2.600263150000    -0.147368400000     1.007825032230
         H           -0.147368400000    -1.134342120000    -2.600263150000     1.007825032230

  Running in c1 symmetry.

  Rotational constants: A =      6.53545  B =      0.43458  C =      0.43458 [cm^-1]
  Rotational constants: A = 195927.87342  B =  13028.43972  C =  13028.43972 [MHz]
  Nuclear repulsion =   12.223291189591457

  Charge       = 0
  Multiplicity = 1
  Electrons    = 10
  Nalpha       = 5
  Nbeta        = 5

  ==> Algorithm <==

  SCF Algorithm Type is DF.
  DIIS enabled.
  MOM disabled.
  Fractional occupation disabled.
  Guess Type is SAD.
  Energy threshold   = 1.00e-08
  Density threshold  = 1.00e-06
  Integral threshold = 0.00e+00

  ==> Primary Basis <==

  Basis Set: STO-3G
    Blend: STO-3G
    Number of shells: 6
    Number of basis function: 8
    Number of Cartesian functions: 8
    Spherical Harmonics?: true
    Max angular momentum: 1

   => Loading Basis Set <=

    Name: (STO-3G AUX)
    Role: JKFIT
    Keyword: DF_BASIS_SCF
    atoms 1   entry N          line   263 file /home/carlosborca/miniconda3/envs/CrystaLattE/share/psi4/basis/def2-svp-jkfit.gbs 
    atoms 2-4 entry H          line    23 file /home/carlosborca/miniconda3/envs/CrystaLattE/share/psi4/basis/def2-svp-jkfit.gbs 

  ==> Pre-Iterations <==

   -------------------------------------------------------
    Irrep   Nso     Nmo     Nalpha   Nbeta   Ndocc  Nsocc
   -------------------------------------------------------
     A          8       8       0       0       0       0
   -------------------------------------------------------
    Total       8       8       5       5       5       0
   -------------------------------------------------------

  ==> Integral Setup <==

  DFHelper Memory: AOs need 0.000 GiB; user supplied 0.349 GiB. Using in-core AOs.

  ==> MemDFJK: Density-Fitted J/K Matrices <==

    J tasked:                   Yes
    K tasked:                   Yes
    wK tasked:                   No
    OpenMP threads:               4
    Memory [MiB]:               357
    Algorithm:                 Core
    Schwarz Cutoff:           1E-12
    Mask sparsity (%):       0.0000
    Fitting Condition:        1E-10

   => Auxiliary Basis Set <=

  Basis Set: (STO-3G AUX)
    Blend: DEF2-SVP-JKFIT
    Number of shells: 43
    Number of basis function: 131
    Number of Cartesian functions: 153
    Spherical Harmonics?: true
    Max angular momentum: 4

  Minimum eigenvalue in the overlap matrix is 2.5446568092E-01.
  Using Symmetric Orthogonalization.

  SCF Guess: Superposition of Atomic Densities via on-the-fly atomic UHF.

  ==> Iterations <==

                           Total Energy        Delta E     RMS |[F,P]|

   @DF-RHF iter SAD:   -54.58562505887945   -5.45856e+01   0.00000e+00 
   @DF-RHF iter   1:   -55.42957380035038   -8.43949e-01   2.08005e-02 DIIS
   @DF-RHF iter   2:   -55.44933997592628   -1.97662e-02   3.93998e-03 DIIS
   @DF-RHF iter   3:   -55.44993006317270   -5.90087e-04   8.13904e-04 DIIS
   @DF-RHF iter   4:   -55.44996535349629   -3.52903e-05   7.59270e-06 DIIS
   @DF-RHF iter   5:   -55.44996535934585   -5.84956e-09   9.86692e-07 DIIS
  Energy and wave function converged.


  ==> Post-Iterations <==

    Orbital Energies [Eh]
    ---------------------

    Doubly Occupied:                                                      

       1A    -15.300501     2A     -1.100051     3A     -0.584614  
       4A     -0.584614     5A     -0.351735  

    Virtual:                                                              

       6A      0.663673     7A      0.759629     8A      0.759629  

    Final Occupation by Irrep:
              A 
    DOCC [     5 ]

  @DF-RHF Final Energy:   -55.44996535934585

   => Energetics <=

    Nuclear Repulsion Energy =             12.2232911895914569
    One-Electron Energy =                 -99.5034369941980970
    Two-Electron Energy =                  31.8301804452607904
    Total Energy =                        -55.4499653593458390

Computation Completed


Properties will be evaluated at   0.000000,   0.000000,   0.000000 [a0]

Properties computed using the SCF density matrix

  Nuclear Dipole Moment: [e a0]
     X:   -15.6501      Y:   -15.6501      Z:   -15.6501

  Electronic Dipole Moment: [e a0]
     X:    16.0450      Y:    16.0450      Z:    16.0450

  Dipole Moment: [e a0]
     X:     0.3949      Y:     0.3949      Z:     0.3949     Total:     0.6840

  Dipole Moment: [D]
     X:     1.0038      Y:     1.0038      Z:     1.0038     Total:     1.7386


*** tstop() called on Vanadium at Thu Sep 26 15:08:44 2019
Module time:
	user time   =       4.52 seconds =       0.08 minutes
	system time =       1.28 seconds =       0.02 minutes
	total time  =          2 seconds =       0.03 minutes
Total time:
	user time   =       4.52 seconds =       0.08 minutes
	system time =       1.28 seconds =       0.02 minutes
	total time  =          2 seconds =       0.03 minutes

       N-Body: Complex Energy (fragments = (1,), basis = (1,):   -55.44996535934585)

       N-Body: Computing complex (2/10) with fragments (1,) in the basis of fragments (1, 2, 3, 4, 5).


*** tstart() called on Vanadium
*** at Thu Sep 26 15:08:44 2019

   => Loading Basis Set <=

    Name: STO-3G
    Role: ORBITAL
    Keyword: BASIS
    atoms 1, 5, 9, 13, 17               entry N          line    71 file /home/carlosborca/miniconda3/envs/CrystaLattE/share/psi4/basis/sto-3g.gbs 
    atoms 2-4, 6-8, 10-12, 14-16, 18-20 entry H          line    19 file /home/carlosborca/miniconda3/envs/CrystaLattE/share/psi4/basis/sto-3g.gbs 


         ---------------------------------------------------------
                                   SCF
               by Justin Turney, Rob Parrish, Andy Simmonett
                          and Daniel G. A. Smith
                              RHF Reference
                        4 Threads,    476 MiB Core
         ---------------------------------------------------------

  ==> Geometry <==

    Molecular point group: c1
    Full point group: C1

    Geometry (in Bohr), charge = 0, multiplicity = 1:

       Center              X                  Y                   Z               Mass       
    ------------   -----------------  -----------------  -----------------  -----------------
         N           -1.681155160000    -1.681155160000    -1.681155160000    14.003074004430
         H           -2.600263150000    -0.147368400000    -1.134342120000     1.007825032230
         H           -1.134342120000    -2.600263150000    -0.147368400000     1.007825032230
         H           -0.147368400000    -1.134342120000    -2.600263150000     1.007825032230
      Gh(N)           3.928511960000     3.166464780000    -0.919107990000    14.003074004430
      Gh(H)           2.394725200000     3.713277820000     0.000000000000     1.007825032230
      Gh(H)           4.847619940000     4.700251540000    -1.465921030000     1.007825032230
      Gh(H)           3.381698920000     2.247356790000    -2.452894750000     1.007825032230
      Gh(N)           3.166464780000    -0.919107990000     3.928511960000    14.003074004430
      Gh(H)           2.247356790000    -2.452894750000     3.381698920000     1.007825032230
      Gh(H)           3.713277820000     0.000000000000     2.394725200000     1.007825032230
      Gh(H)           4.700251540000    -1.465921030000     4.847619940000     1.007825032230
      Gh(N)          -0.919107990000     3.928511960000     3.166464780000    14.003074004430
      Gh(H)          -1.465921030000     4.847619940000     4.700251540000     1.007825032230
      Gh(H)          -2.452894750000     3.381698920000     2.247356790000     1.007825032230
      Gh(H)           0.000000000000     2.394725200000     3.713277820000     1.007825032230
      Gh(N)           3.928511960000    -6.528775110000    -0.919107990000    14.003074004430
      Gh(H)           2.394725200000    -5.981962070000     0.000000000000     1.007825032230
      Gh(H)           4.847619940000    -4.994988350000    -1.465921030000     1.007825032230
      Gh(H)           3.381698920000    -7.447883090000    -2.452894750000     1.007825032230

  Running in c1 symmetry.

  Rotational constants: A =      0.05430  B =      0.03392  C =      0.02816 [cm^-1]
  Rotational constants: A =   1627.73706  B =   1016.82684  C =    844.19592 [MHz]
  Nuclear repulsion =   12.223291189591457

  Charge       = 0
  Multiplicity = 1
  Electrons    = 10
  Nalpha       = 5
  Nbeta        = 5

  ==> Algorithm <==

  SCF Algorithm Type is DF.
  DIIS enabled.
  MOM disabled.
  Fractional occupation disabled.
  Guess Type is SAD.
  Energy threshold   = 1.00e-08
  Density threshold  = 1.00e-06
  Integral threshold = 0.00e+00

  ==> Primary Basis <==

  Basis Set: STO-3G
    Blend: STO-3G
    Number of shells: 30
    Number of basis function: 40
    Number of Cartesian functions: 40
    Spherical Harmonics?: true
    Max angular momentum: 1

   => Loading Basis Set <=

    Name: (STO-3G AUX)
    Role: JKFIT
    Keyword: DF_BASIS_SCF
    atoms 1, 5, 9, 13, 17               entry N          line   263 file /home/carlosborca/miniconda3/envs/CrystaLattE/share/psi4/basis/def2-svp-jkfit.gbs 
    atoms 2-4, 6-8, 10-12, 14-16, 18-20 entry H          line    23 file /home/carlosborca/miniconda3/envs/CrystaLattE/share/psi4/basis/def2-svp-jkfit.gbs 

  ==> Pre-Iterations <==

   -------------------------------------------------------
    Irrep   Nso     Nmo     Nalpha   Nbeta   Ndocc  Nsocc
   -------------------------------------------------------
     A         40      40       0       0       0       0
   -------------------------------------------------------
    Total      40      40       5       5       5       0
   -------------------------------------------------------

  ==> Integral Setup <==

  DFHelper Memory: AOs need 0.011 GiB; user supplied 0.349 GiB. Using in-core AOs.

  ==> MemDFJK: Density-Fitted J/K Matrices <==

    J tasked:                   Yes
    K tasked:                   Yes
    wK tasked:                   No
    OpenMP threads:               4
    Memory [MiB]:               357
    Algorithm:                 Core
    Schwarz Cutoff:           1E-12
    Mask sparsity (%):       3.0000
    Fitting Condition:        1E-10

   => Auxiliary Basis Set <=

  Basis Set: (STO-3G AUX)
    Blend: DEF2-SVP-JKFIT
    Number of shells: 215
    Number of basis function: 655
    Number of Cartesian functions: 765
    Spherical Harmonics?: true
    Max angular momentum: 4

  Minimum eigenvalue in the overlap matrix is 2.4566979047E-01.
  Using Symmetric Orthogonalization.

  SCF Guess: Superposition of Atomic Densities via on-the-fly atomic UHF.

  ==> Iterations <==

                           Total Energy        Delta E     RMS |[F,P]|

   @DF-RHF iter SAD:   -54.58561893332310   -5.45856e+01   0.00000e+00 
   @DF-RHF iter   1:   -55.42983297962896   -8.44214e-01   4.15714e-03 DIIS
   @DF-RHF iter   2:   -55.44955069358409   -1.97177e-02   7.90277e-04 DIIS
   @DF-RHF iter   3:   -55.45014462240418   -5.93929e-04   1.63097e-04 DIIS
   @DF-RHF iter   4:   -55.45018013560654   -3.55132e-05   1.81298e-06 DIIS
   @DF-RHF iter   5:   -55.45018014289448   -7.28794e-09   5.02492e-07 DIIS
  Energy and wave function converged.


  ==> Post-Iterations <==

    Orbital Energies [Eh]
    ---------------------

    Doubly Occupied:                                                      

       1A    -15.301058     2A     -1.100422     3A     -0.584943  
       4A     -0.584927     5A     -0.352059  

    Virtual:                                                              

       6A      0.393073     7A      0.426088     8A      0.434989  
       9A      0.439213    10A      0.659063    11A      0.750823  
      12A      0.753941    13A      0.880942    14A      0.928333  
      15A      0.940983    16A      0.944211    17A      0.946119  
      18A      0.962756    19A      0.975646    20A      0.980044  
      21A      1.308221    22A      1.316855    23A      1.344198  
      24A      1.372166    25A      2.127164    26A      2.205097  
      27A      2.247051    28A      2.250091    29A      2.665780  
      30A      2.671456    31A      2.680611    32A      2.699006  
      33A      2.703800    34A      2.719703    35A      2.734833  
      36A      2.757109    37A     23.893945    38A     23.895824  
      39A     23.914087    40A     23.933575  

    Final Occupation by Irrep:
              A 
    DOCC [     5 ]

  @DF-RHF Final Energy:   -55.45018014289448

   => Energetics <=

    Nuclear Repulsion Energy =             12.2232911895914569
    One-Electron Energy =                 -99.5001374792673232
    Two-Electron Energy =                  31.8266661467813776
    Total Energy =                        -55.4501801428944816

Computation Completed


Properties will be evaluated at   0.000000,   0.000000,   0.000000 [a0]

Properties computed using the SCF density matrix

  Nuclear Dipole Moment: [e a0]
     X:   -15.6501      Y:   -15.6501      Z:   -15.6501

  Electronic Dipole Moment: [e a0]
     X:    16.0425      Y:    16.0440      Z:    16.0430

  Dipole Moment: [e a0]
     X:     0.3925      Y:     0.3940      Z:     0.3929     Total:     0.6809

  Dipole Moment: [D]
     X:     0.9975      Y:     1.0014      Z:     0.9988     Total:     1.7307


*** tstop() called on Vanadium at Thu Sep 26 15:08:47 2019
Module time:
	user time   =       6.68 seconds =       0.11 minutes
	system time =       1.02 seconds =       0.02 minutes
	total time  =          3 seconds =       0.05 minutes
Total time:
	user time   =      11.25 seconds =       0.19 minutes
	system time =       2.32 seconds =       0.04 minutes
	total time  =          5 seconds =       0.08 minutes

       N-Body: Complex Energy (fragments = (1,), basis = (1, 2, 3, 4, 5):   -55.45018014289448)

       N-Body: Computing complex (3/10) with fragments (3,) in the basis of fragments (3,).


*** tstart() called on Vanadium
*** at Thu Sep 26 15:08:47 2019

   => Loading Basis Set <=

    Name: STO-3G
    Role: ORBITAL
    Keyword: BASIS
    atoms 1   entry N          line    71 file /home/carlosborca/miniconda3/envs/CrystaLattE/share/psi4/basis/sto-3g.gbs 
    atoms 2-4 entry H          line    19 file /home/carlosborca/miniconda3/envs/CrystaLattE/share/psi4/basis/sto-3g.gbs 


         ---------------------------------------------------------
                                   SCF
               by Justin Turney, Rob Parrish, Andy Simmonett
                          and Daniel G. A. Smith
                              RHF Reference
                        4 Threads,    476 MiB Core
         ---------------------------------------------------------

  ==> Geometry <==

    Molecular point group: c1
    Full point group: C1

    Geometry (in Bohr), charge = 0, multiplicity = 1:

       Center              X                  Y                   Z               Mass       
    ------------   -----------------  -----------------  -----------------  -----------------
         N            3.166464780000    -0.919107990000     3.928511960000    14.003074004430
         H            2.247356790000    -2.452894750000     3.381698920000     1.007825032230
         H            3.713277820000     0.000000000000     2.394725200000     1.007825032230
         H            4.700251540000    -1.465921030000     4.847619940000     1.007825032230

  Running in c1 symmetry.

  Rotational constants: A =     10.50680  B =      0.13254  C =      0.13153 [cm^-1]
  Rotational constants: A = 314985.91418  B =   3973.38736  C =   3943.16163 [MHz]
  Nuclear repulsion =   12.223291200851136

  Charge       = 0
  Multiplicity = 1
  Electrons    = 10
  Nalpha       = 5
  Nbeta        = 5

  ==> Algorithm <==

  SCF Algorithm Type is DF.
  DIIS enabled.
  MOM disabled.
  Fractional occupation disabled.
  Guess Type is SAD.
  Energy threshold   = 1.00e-08
  Density threshold  = 1.00e-06
  Integral threshold = 0.00e+00

  ==> Primary Basis <==

  Basis Set: STO-3G
    Blend: STO-3G
    Number of shells: 6
    Number of basis function: 8
    Number of Cartesian functions: 8
    Spherical Harmonics?: true
    Max angular momentum: 1

   => Loading Basis Set <=

    Name: (STO-3G AUX)
    Role: JKFIT
    Keyword: DF_BASIS_SCF
    atoms 1   entry N          line   263 file /home/carlosborca/miniconda3/envs/CrystaLattE/share/psi4/basis/def2-svp-jkfit.gbs 
    atoms 2-4 entry H          line    23 file /home/carlosborca/miniconda3/envs/CrystaLattE/share/psi4/basis/def2-svp-jkfit.gbs 

  ==> Pre-Iterations <==

   -------------------------------------------------------
    Irrep   Nso     Nmo     Nalpha   Nbeta   Ndocc  Nsocc
   -------------------------------------------------------
     A          8       8       0       0       0       0
   -------------------------------------------------------
    Total       8       8       5       5       5       0
   -------------------------------------------------------

  ==> Integral Setup <==

  DFHelper Memory: AOs need 0.000 GiB; user supplied 0.349 GiB. Using in-core AOs.

  ==> MemDFJK: Density-Fitted J/K Matrices <==

    J tasked:                   Yes
    K tasked:                   Yes
    wK tasked:                   No
    OpenMP threads:               4
    Memory [MiB]:               357
    Algorithm:                 Core
    Schwarz Cutoff:           1E-12
    Mask sparsity (%):       0.0000
    Fitting Condition:        1E-10

   => Auxiliary Basis Set <=

  Basis Set: (STO-3G AUX)
    Blend: DEF2-SVP-JKFIT
    Number of shells: 43
    Number of basis function: 131
    Number of Cartesian functions: 153
    Spherical Harmonics?: true
    Max angular momentum: 4

  Minimum eigenvalue in the overlap matrix is 2.5446568031E-01.
  Using Symmetric Orthogonalization.

  SCF Guess: Superposition of Atomic Densities via on-the-fly atomic UHF.

  ==> Iterations <==

                           Total Energy        Delta E     RMS |[F,P]|

   @DF-RHF iter SAD:   -54.58562506171283   -5.45856e+01   0.00000e+00 
   @DF-RHF iter   1:   -55.42957380017281   -8.43949e-01   2.08005e-02 DIIS
   @DF-RHF iter   2:   -55.44933997575205   -1.97662e-02   3.93998e-03 DIIS
   @DF-RHF iter   3:   -55.44993006299703   -5.90087e-04   8.13904e-04 DIIS
   @DF-RHF iter   4:   -55.44996535332049   -3.52903e-05   7.59270e-06 DIIS
   @DF-RHF iter   5:   -55.44996535917008   -5.84959e-09   9.86692e-07 DIIS
  Energy and wave function converged.


  ==> Post-Iterations <==

    Orbital Energies [Eh]
    ---------------------

    Doubly Occupied:                                                      

       1A    -15.300501     2A     -1.100051     3A     -0.584614  
       4A     -0.584614     5A     -0.351735  

    Virtual:                                                              

       6A      0.663673     7A      0.759629     8A      0.759629  

    Final Occupation by Irrep:
              A 
    DOCC [     5 ]

  @DF-RHF Final Energy:   -55.44996535917008

   => Energetics <=

    Nuclear Repulsion Energy =             12.2232912008511363
    One-Electron Energy =                 -99.5034370119315383
    Two-Electron Energy =                  31.8301804519103193
    Total Energy =                        -55.4499653591700792

Computation Completed


Properties will be evaluated at   0.000000,   0.000000,   0.000000 [a0]

Properties computed using the SCF density matrix

  Nuclear Dipole Moment: [e a0]
     X:    32.8261      Y:   -10.3526      Z:    38.1236

  Electronic Dipole Moment: [e a0]
     X:   -32.4312      Y:     9.9577      Z:   -38.5185

  Dipole Moment: [e a0]
     X:     0.3949      Y:    -0.3949      Z:    -0.3949     Total:     0.6840

  Dipole Moment: [D]
     X:     1.0038      Y:    -1.0038      Z:    -1.0038     Total:     1.7386


*** tstop() called on Vanadium at Thu Sep 26 15:08:49 2019
Module time:
	user time   =       3.72 seconds =       0.06 minutes
	system time =       0.56 seconds =       0.01 minutes
	total time  =          2 seconds =       0.03 minutes
Total time:
	user time   =      15.02 seconds =       0.25 minutes
	system time =       2.89 seconds =       0.05 minutes
	total time  =          7 seconds =       0.12 minutes

       N-Body: Complex Energy (fragments = (3,), basis = (3,):   -55.44996535917008)

       N-Body: Computing complex (4/10) with fragments (2,) in the basis of fragments (2,).


*** tstart() called on Vanadium
*** at Thu Sep 26 15:08:49 2019

   => Loading Basis Set <=

    Name: STO-3G
    Role: ORBITAL
    Keyword: BASIS
    atoms 1   entry N          line    71 file /home/carlosborca/miniconda3/envs/CrystaLattE/share/psi4/basis/sto-3g.gbs 
    atoms 2-4 entry H          line    19 file /home/carlosborca/miniconda3/envs/CrystaLattE/share/psi4/basis/sto-3g.gbs 


         ---------------------------------------------------------
                                   SCF
               by Justin Turney, Rob Parrish, Andy Simmonett
                          and Daniel G. A. Smith
                              RHF Reference
                        4 Threads,    476 MiB Core
         ---------------------------------------------------------

  ==> Geometry <==

    Molecular point group: c1
    Full point group: C1

    Geometry (in Bohr), charge = 0, multiplicity = 1:

       Center              X                  Y                   Z               Mass       
    ------------   -----------------  -----------------  -----------------  -----------------
         N            3.928511960000     3.166464780000    -0.919107990000    14.003074004430
         H            2.394725200000     3.713277820000     0.000000000000     1.007825032230
         H            4.847619940000     4.700251540000    -1.465921030000     1.007825032230
         H            3.381698920000     2.247356790000    -2.452894750000     1.007825032230

  Running in c1 symmetry.

  Rotational constants: A =     10.50680  B =      0.13254  C =      0.13153 [cm^-1]
  Rotational constants: A = 314985.91418  B =   3973.38736  C =   3943.16163 [MHz]
  Nuclear repulsion =   12.223291200851136

  Charge       = 0
  Multiplicity = 1
  Electrons    = 10
  Nalpha       = 5
  Nbeta        = 5

  ==> Algorithm <==

  SCF Algorithm Type is DF.
  DIIS enabled.
  MOM disabled.
  Fractional occupation disabled.
  Guess Type is SAD.
  Energy threshold   = 1.00e-08
  Density threshold  = 1.00e-06
  Integral threshold = 0.00e+00

  ==> Primary Basis <==

  Basis Set: STO-3G
    Blend: STO-3G
    Number of shells: 6
    Number of basis function: 8
    Number of Cartesian functions: 8
    Spherical Harmonics?: true
    Max angular momentum: 1

   => Loading Basis Set <=

    Name: (STO-3G AUX)
    Role: JKFIT
    Keyword: DF_BASIS_SCF
    atoms 1   entry N          line   263 file /home/carlosborca/miniconda3/envs/CrystaLattE/share/psi4/basis/def2-svp-jkfit.gbs 
    atoms 2-4 entry H          line    23 file /home/carlosborca/miniconda3/envs/CrystaLattE/share/psi4/basis/def2-svp-jkfit.gbs 

  ==> Pre-Iterations <==

   -------------------------------------------------------
    Irrep   Nso     Nmo     Nalpha   Nbeta   Ndocc  Nsocc
   -------------------------------------------------------
     A          8       8       0       0       0       0
   -------------------------------------------------------
    Total       8       8       5       5       5       0
   -------------------------------------------------------

  ==> Integral Setup <==

  DFHelper Memory: AOs need 0.000 GiB; user supplied 0.349 GiB. Using in-core AOs.

  ==> MemDFJK: Density-Fitted J/K Matrices <==

    J tasked:                   Yes
    K tasked:                   Yes
    wK tasked:                   No
    OpenMP threads:               4
    Memory [MiB]:               357
    Algorithm:                 Core
    Schwarz Cutoff:           1E-12
    Mask sparsity (%):       0.0000
    Fitting Condition:        1E-10

   => Auxiliary Basis Set <=

  Basis Set: (STO-3G AUX)
    Blend: DEF2-SVP-JKFIT
    Number of shells: 43
    Number of basis function: 131
    Number of Cartesian functions: 153
    Spherical Harmonics?: true
    Max angular momentum: 4

  Minimum eigenvalue in the overlap matrix is 2.5446568031E-01.
  Using Symmetric Orthogonalization.

  SCF Guess: Superposition of Atomic Densities via on-the-fly atomic UHF.

  ==> Iterations <==

                           Total Energy        Delta E     RMS |[F,P]|

   @DF-RHF iter SAD:   -54.58562506171484   -5.45856e+01   0.00000e+00 
   @DF-RHF iter   1:   -55.42957380017454   -8.43949e-01   2.08005e-02 DIIS
   @DF-RHF iter   2:   -55.44933997575383   -1.97662e-02   3.93998e-03 DIIS
   @DF-RHF iter   3:   -55.44993006299876   -5.90087e-04   8.13904e-04 DIIS
   @DF-RHF iter   4:   -55.44996535332229   -3.52903e-05   7.59270e-06 DIIS
   @DF-RHF iter   5:   -55.44996535917190   -5.84961e-09   9.86692e-07 DIIS
  Energy and wave function converged.


  ==> Post-Iterations <==

    Orbital Energies [Eh]
    ---------------------

    Doubly Occupied:                                                      

       1A    -15.300501     2A     -1.100051     3A     -0.584614  
       4A     -0.584614     5A     -0.351735  

    Virtual:                                                              

       6A      0.663673     7A      0.759629     8A      0.759629  

    Final Occupation by Irrep:
              A 
    DOCC [     5 ]

  @DF-RHF Final Energy:   -55.44996535917190

   => Energetics <=

    Nuclear Repulsion Energy =             12.2232912008511363
    One-Electron Energy =                 -99.5034370119357447
    Two-Electron Energy =                  31.8301804519127103
    Total Energy =                        -55.4499653591718982

Computation Completed


Properties will be evaluated at   0.000000,   0.000000,   0.000000 [a0]

Properties computed using the SCF density matrix

  Nuclear Dipole Moment: [e a0]
     X:    38.1236      Y:    32.8261      Z:   -10.3526

  Electronic Dipole Moment: [e a0]
     X:   -38.5185      Y:   -32.4312      Z:     9.9577

  Dipole Moment: [e a0]
     X:    -0.3949      Y:     0.3949      Z:    -0.3949     Total:     0.6840

  Dipole Moment: [D]
     X:    -1.0038      Y:     1.0038      Z:    -1.0038     Total:     1.7386


*** tstop() called on Vanadium at Thu Sep 26 15:08:50 2019
Module time:
	user time   =       3.70 seconds =       0.06 minutes
	system time =       0.81 seconds =       0.01 minutes
	total time  =          1 seconds =       0.02 minutes
Total time:
	user time   =      18.77 seconds =       0.31 minutes
	system time =       3.72 seconds =       0.06 minutes
	total time  =          8 seconds =       0.13 minutes

       N-Body: Complex Energy (fragments = (2,), basis = (2,):   -55.44996535917190)

       N-Body: Computing complex (5/10) with fragments (4,) in the basis of fragments (1, 2, 3, 4, 5).


*** tstart() called on Vanadium
*** at Thu Sep 26 15:08:50 2019

   => Loading Basis Set <=

    Name: STO-3G
    Role: ORBITAL
    Keyword: BASIS
    atoms 1, 5, 9, 13, 17               entry N          line    71 file /home/carlosborca/miniconda3/envs/CrystaLattE/share/psi4/basis/sto-3g.gbs 
    atoms 2-4, 6-8, 10-12, 14-16, 18-20 entry H          line    19 file /home/carlosborca/miniconda3/envs/CrystaLattE/share/psi4/basis/sto-3g.gbs 


         ---------------------------------------------------------
                                   SCF
               by Justin Turney, Rob Parrish, Andy Simmonett
                          and Daniel G. A. Smith
                              RHF Reference
                        4 Threads,    476 MiB Core
         ---------------------------------------------------------

  ==> Geometry <==

    Molecular point group: c1
    Full point group: C1

    Geometry (in Bohr), charge = 0, multiplicity = 1:

       Center              X                  Y                   Z               Mass       
    ------------   -----------------  -----------------  -----------------  -----------------
      Gh(N)          -1.681155160000    -1.681155160000    -1.681155160000    14.003074004430
      Gh(H)          -2.600263150000    -0.147368400000    -1.134342120000     1.007825032230
      Gh(H)          -1.134342120000    -2.600263150000    -0.147368400000     1.007825032230
      Gh(H)          -0.147368400000    -1.134342120000    -2.600263150000     1.007825032230
      Gh(N)           3.928511960000     3.166464780000    -0.919107990000    14.003074004430
      Gh(H)           2.394725200000     3.713277820000     0.000000000000     1.007825032230
      Gh(H)           4.847619940000     4.700251540000    -1.465921030000     1.007825032230
      Gh(H)           3.381698920000     2.247356790000    -2.452894750000     1.007825032230
      Gh(N)           3.166464780000    -0.919107990000     3.928511960000    14.003074004430
      Gh(H)           2.247356790000    -2.452894750000     3.381698920000     1.007825032230
      Gh(H)           3.713277820000     0.000000000000     2.394725200000     1.007825032230
      Gh(H)           4.700251540000    -1.465921030000     4.847619940000     1.007825032230
         N           -0.919107990000     3.928511960000     3.166464780000    14.003074004430
         H           -1.465921030000     4.847619940000     4.700251540000     1.007825032230
         H           -2.452894750000     3.381698920000     2.247356790000     1.007825032230
         H            0.000000000000     2.394725200000     3.713277820000     1.007825032230
      Gh(N)           3.928511960000    -6.528775110000    -0.919107990000    14.003074004430
      Gh(H)           2.394725200000    -5.981962070000     0.000000000000     1.007825032230
      Gh(H)           4.847619940000    -4.994988350000    -1.465921030000     1.007825032230
      Gh(H)           3.381698920000    -7.447883090000    -2.452894750000     1.007825032230

  Running in c1 symmetry.

  Rotational constants: A =      0.05430  B =      0.03392  C =      0.02816 [cm^-1]
  Rotational constants: A =   1627.73706  B =   1016.82684  C =    844.19592 [MHz]
  Nuclear repulsion =   12.223291200851138

  Charge       = 0
  Multiplicity = 1
  Electrons    = 10
  Nalpha       = 5
  Nbeta        = 5

  ==> Algorithm <==

  SCF Algorithm Type is DF.
  DIIS enabled.
  MOM disabled.
  Fractional occupation disabled.
  Guess Type is SAD.
  Energy threshold   = 1.00e-08
  Density threshold  = 1.00e-06
  Integral threshold = 0.00e+00

  ==> Primary Basis <==

  Basis Set: STO-3G
    Blend: STO-3G
    Number of shells: 30
    Number of basis function: 40
    Number of Cartesian functions: 40
    Spherical Harmonics?: true
    Max angular momentum: 1

   => Loading Basis Set <=

    Name: (STO-3G AUX)
    Role: JKFIT
    Keyword: DF_BASIS_SCF
    atoms 1, 5, 9, 13, 17               entry N          line   263 file /home/carlosborca/miniconda3/envs/CrystaLattE/share/psi4/basis/def2-svp-jkfit.gbs 
    atoms 2-4, 6-8, 10-12, 14-16, 18-20 entry H          line    23 file /home/carlosborca/miniconda3/envs/CrystaLattE/share/psi4/basis/def2-svp-jkfit.gbs 

  ==> Pre-Iterations <==

   -------------------------------------------------------
    Irrep   Nso     Nmo     Nalpha   Nbeta   Ndocc  Nsocc
   -------------------------------------------------------
     A         40      40       0       0       0       0
   -------------------------------------------------------
    Total      40      40       5       5       5       0
   -------------------------------------------------------

  ==> Integral Setup <==

  DFHelper Memory: AOs need 0.011 GiB; user supplied 0.349 GiB. Using in-core AOs.

  ==> MemDFJK: Density-Fitted J/K Matrices <==

    J tasked:                   Yes
    K tasked:                   Yes
    wK tasked:                   No
    OpenMP threads:               4
    Memory [MiB]:               357
    Algorithm:                 Core
    Schwarz Cutoff:           1E-12
    Mask sparsity (%):       3.0000
    Fitting Condition:        1E-10

   => Auxiliary Basis Set <=

  Basis Set: (STO-3G AUX)
    Blend: DEF2-SVP-JKFIT
    Number of shells: 215
    Number of basis function: 655
    Number of Cartesian functions: 765
    Spherical Harmonics?: true
    Max angular momentum: 4

  Minimum eigenvalue in the overlap matrix is 2.4566979047E-01.
  Using Symmetric Orthogonalization.

  SCF Guess: Superposition of Atomic Densities via on-the-fly atomic UHF.

  ==> Iterations <==

                           Total Energy        Delta E     RMS |[F,P]|

   @DF-RHF iter SAD:   -54.58562324199914   -5.45856e+01   0.00000e+00 
   @DF-RHF iter   1:   -55.43138770689768   -8.45764e-01   4.12945e-03 DIIS
   @DF-RHF iter   2:   -55.45082012186062   -1.94324e-02   8.00129e-04 DIIS
   @DF-RHF iter   3:   -55.45142768325510   -6.07561e-04   1.64508e-04 DIIS
   @DF-RHF iter   4:   -55.45146402792515   -3.63447e-05   2.13991e-06 DIIS
   @DF-RHF iter   5:   -55.45146403590870   -7.98355e-09   4.89586e-07 DIIS
  Energy and wave function converged.


  ==> Post-Iterations <==

    Orbital Energies [Eh]
    ---------------------

    Doubly Occupied:                                                      

       1A    -15.303191     2A     -1.101445     3A     -0.585974  
       4A     -0.585845     5A     -0.353290  

    Virtual:                                                              

       6A      0.407253     7A      0.433042     8A      0.437367  
       9A      0.454207    10A      0.662317    11A      0.755483  
      12A      0.758408    13A      0.888014    14A      0.925447  
      15A      0.938089    16A      0.947458    17A      0.968677  
      18A      0.971980    19A      0.985620    20A      1.002315  
      21A      1.299414    22A      1.334138    23A      1.361480  
      24A      1.387712    25A      2.173050    26A      2.206410  
      27A      2.220723    28A      2.268230    29A      2.654601  
      30A      2.684509    31A      2.692561    32A      2.701848  
      33A      2.720675    34A      2.729348    35A      2.747160  
      36A      2.755793    37A     23.897258    38A     23.910753  
      39A     23.922354    40A     23.941634  

    Final Occupation by Irrep:
              A 
    DOCC [     5 ]

  @DF-RHF Final Energy:   -55.45146403590870

   => Energetics <=

    Nuclear Repulsion Energy =             12.2232912008511381
    One-Electron Energy =                 -99.4900286807502283
    Two-Electron Energy =                  31.8152734439903959
    Total Energy =                        -55.4514640359086997

Computation Completed


Properties will be evaluated at   0.000000,   0.000000,   0.000000 [a0]

Properties computed using the SCF density matrix

  Nuclear Dipole Moment: [e a0]
     X:   -10.3526      Y:    38.1236      Z:    32.8261

  Electronic Dipole Moment: [e a0]
     X:     9.9451      Y:   -38.5164      Z:   -32.4189

  Dipole Moment: [e a0]
     X:    -0.4074      Y:    -0.3928      Z:     0.4072     Total:     0.6972

  Dipole Moment: [D]
     X:    -1.0356      Y:    -0.9983      Z:     1.0350     Total:     1.7721


*** tstop() called on Vanadium at Thu Sep 26 15:08:53 2019
Module time:
	user time   =       6.27 seconds =       0.10 minutes
	system time =       1.13 seconds =       0.02 minutes
	total time  =          3 seconds =       0.05 minutes
Total time:
	user time   =      25.10 seconds =       0.42 minutes
	system time =       4.85 seconds =       0.08 minutes
	total time  =         11 seconds =       0.18 minutes

       N-Body: Complex Energy (fragments = (4,), basis = (1, 2, 3, 4, 5):   -55.45146403590870)

       N-Body: Computing complex (6/10) with fragments (2,) in the basis of fragments (1, 2, 3, 4, 5).


*** tstart() called on Vanadium
*** at Thu Sep 26 15:08:53 2019

   => Loading Basis Set <=

    Name: STO-3G
    Role: ORBITAL
    Keyword: BASIS
    atoms 1, 5, 9, 13, 17               entry N          line    71 file /home/carlosborca/miniconda3/envs/CrystaLattE/share/psi4/basis/sto-3g.gbs 
    atoms 2-4, 6-8, 10-12, 14-16, 18-20 entry H          line    19 file /home/carlosborca/miniconda3/envs/CrystaLattE/share/psi4/basis/sto-3g.gbs 


         ---------------------------------------------------------
                                   SCF
               by Justin Turney, Rob Parrish, Andy Simmonett
                          and Daniel G. A. Smith
                              RHF Reference
                        4 Threads,    476 MiB Core
         ---------------------------------------------------------

  ==> Geometry <==

    Molecular point group: c1
    Full point group: C1

    Geometry (in Bohr), charge = 0, multiplicity = 1:

       Center              X                  Y                   Z               Mass       
    ------------   -----------------  -----------------  -----------------  -----------------
      Gh(N)          -1.681155160000    -1.681155160000    -1.681155160000    14.003074004430
      Gh(H)          -2.600263150000    -0.147368400000    -1.134342120000     1.007825032230
      Gh(H)          -1.134342120000    -2.600263150000    -0.147368400000     1.007825032230
      Gh(H)          -0.147368400000    -1.134342120000    -2.600263150000     1.007825032230
         N            3.928511960000     3.166464780000    -0.919107990000    14.003074004430
         H            2.394725200000     3.713277820000     0.000000000000     1.007825032230
         H            4.847619940000     4.700251540000    -1.465921030000     1.007825032230
         H            3.381698920000     2.247356790000    -2.452894750000     1.007825032230
      Gh(N)           3.166464780000    -0.919107990000     3.928511960000    14.003074004430
      Gh(H)           2.247356790000    -2.452894750000     3.381698920000     1.007825032230
      Gh(H)           3.713277820000     0.000000000000     2.394725200000     1.007825032230
      Gh(H)           4.700251540000    -1.465921030000     4.847619940000     1.007825032230
      Gh(N)          -0.919107990000     3.928511960000     3.166464780000    14.003074004430
      Gh(H)          -1.465921030000     4.847619940000     4.700251540000     1.007825032230
      Gh(H)          -2.452894750000     3.381698920000     2.247356790000     1.007825032230
      Gh(H)           0.000000000000     2.394725200000     3.713277820000     1.007825032230
      Gh(N)           3.928511960000    -6.528775110000    -0.919107990000    14.003074004430
      Gh(H)           2.394725200000    -5.981962070000     0.000000000000     1.007825032230
      Gh(H)           4.847619940000    -4.994988350000    -1.465921030000     1.007825032230
      Gh(H)           3.381698920000    -7.447883090000    -2.452894750000     1.007825032230

  Running in c1 symmetry.

  Rotational constants: A =      0.05430  B =      0.03392  C =      0.02816 [cm^-1]
  Rotational constants: A =   1627.73706  B =   1016.82684  C =    844.19592 [MHz]
  Nuclear repulsion =   12.223291200851136

  Charge       = 0
  Multiplicity = 1
  Electrons    = 10
  Nalpha       = 5
  Nbeta        = 5

  ==> Algorithm <==

  SCF Algorithm Type is DF.
  DIIS enabled.
  MOM disabled.
  Fractional occupation disabled.
  Guess Type is SAD.
  Energy threshold   = 1.00e-08
  Density threshold  = 1.00e-06
  Integral threshold = 0.00e+00

  ==> Primary Basis <==

  Basis Set: STO-3G
    Blend: STO-3G
    Number of shells: 30
    Number of basis function: 40
    Number of Cartesian functions: 40
    Spherical Harmonics?: true
    Max angular momentum: 1

   => Loading Basis Set <=

    Name: (STO-3G AUX)
    Role: JKFIT
    Keyword: DF_BASIS_SCF
    atoms 1, 5, 9, 13, 17               entry N          line   263 file /home/carlosborca/miniconda3/envs/CrystaLattE/share/psi4/basis/def2-svp-jkfit.gbs 
    atoms 2-4, 6-8, 10-12, 14-16, 18-20 entry H          line    23 file /home/carlosborca/miniconda3/envs/CrystaLattE/share/psi4/basis/def2-svp-jkfit.gbs 

  ==> Pre-Iterations <==

   -------------------------------------------------------
    Irrep   Nso     Nmo     Nalpha   Nbeta   Ndocc  Nsocc
   -------------------------------------------------------
     A         40      40       0       0       0       0
   -------------------------------------------------------
    Total      40      40       5       5       5       0
   -------------------------------------------------------

  ==> Integral Setup <==

  DFHelper Memory: AOs need 0.011 GiB; user supplied 0.349 GiB. Using in-core AOs.

  ==> MemDFJK: Density-Fitted J/K Matrices <==

    J tasked:                   Yes
    K tasked:                   Yes
    wK tasked:                   No
    OpenMP threads:               4
    Memory [MiB]:               357
    Algorithm:                 Core
    Schwarz Cutoff:           1E-12
    Mask sparsity (%):       3.0000
    Fitting Condition:        1E-10

   => Auxiliary Basis Set <=

  Basis Set: (STO-3G AUX)
    Blend: DEF2-SVP-JKFIT
    Number of shells: 215
    Number of basis function: 655
    Number of Cartesian functions: 765
    Spherical Harmonics?: true
    Max angular momentum: 4

  Minimum eigenvalue in the overlap matrix is 2.4566979047E-01.
  Using Symmetric Orthogonalization.

  SCF Guess: Superposition of Atomic Densities via on-the-fly atomic UHF.

  ==> Iterations <==

                           Total Energy        Delta E     RMS |[F,P]|

   @DF-RHF iter SAD:   -54.58562337983769   -5.45856e+01   0.00000e+00 
   @DF-RHF iter   1:   -55.43138843771069   -8.45765e-01   4.12943e-03 DIIS
   @DF-RHF iter   2:   -55.45082073191626   -1.94323e-02   8.00131e-04 DIIS
   @DF-RHF iter   3:   -55.45142829967826   -6.07568e-04   1.64509e-04 DIIS
   @DF-RHF iter   4:   -55.45146464490705   -3.63452e-05   2.13998e-06 DIIS
   @DF-RHF iter   5:   -55.45146465289147   -7.98442e-09   4.89525e-07 DIIS
  Energy and wave function converged.


  ==> Post-Iterations <==

    Orbital Energies [Eh]
    ---------------------

    Doubly Occupied:                                                      

       1A    -15.303193     2A     -1.101446     3A     -0.585975  
       4A     -0.585845     5A     -0.353291  

    Virtual:                                                              

       6A      0.409505     7A      0.430289     8A      0.441472  
       9A      0.455528    10A      0.662307    11A      0.755466  
      12A      0.758417    13A      0.894614    14A      0.920656  
      15A      0.935349    16A      0.950584    17A      0.966579  
      18A      0.982959    19A      0.984997    20A      1.001880  
      21A      1.305923    22A      1.324700    23A      1.368972  
      24A      1.388066    25A      2.173748    26A      2.208502  
      27A      2.222546    28A      2.268462    29A      2.661098  
      30A      2.676716    31A      2.692011    32A      2.706180  
      33A      2.720391    34A      2.737395    35A      2.747310  
      36A      2.755345    37A     23.902568    38A     23.905214  
      39A     23.926739    40A     23.942395  

    Final Occupation by Irrep:
              A 
    DOCC [     5 ]

  @DF-RHF Final Energy:   -55.45146465289147

   => Energetics <=

    Nuclear Repulsion Energy =             12.2232912008511363
    One-Electron Energy =                 -99.4900206346715237
    Two-Electron Energy =                  31.8152647809289206
    Total Energy =                        -55.4514646528914668

Computation Completed


Properties will be evaluated at   0.000000,   0.000000,   0.000000 [a0]

Properties computed using the SCF density matrix

  Nuclear Dipole Moment: [e a0]
     X:    38.1236      Y:    32.8261      Z:   -10.3526

  Electronic Dipole Moment: [e a0]
     X:   -38.5164      Y:   -32.4189      Z:     9.9451

  Dipole Moment: [e a0]
     X:    -0.3928      Y:     0.4072      Z:    -0.4074     Total:     0.6972

  Dipole Moment: [D]
     X:    -0.9983      Y:     1.0350      Z:    -1.0356     Total:     1.7721


*** tstop() called on Vanadium at Thu Sep 26 15:08:56 2019
Module time:
	user time   =       7.26 seconds =       0.12 minutes
	system time =       1.24 seconds =       0.02 minutes
	total time  =          3 seconds =       0.05 minutes
Total time:
	user time   =      32.47 seconds =       0.54 minutes
	system time =       6.10 seconds =       0.10 minutes
	total time  =         14 seconds =       0.23 minutes

       N-Body: Complex Energy (fragments = (2,), basis = (1, 2, 3, 4, 5):   -55.45146465289147)

       N-Body: Computing complex (7/10) with fragments (5,) in the basis of fragments (5,).


*** tstart() called on Vanadium
*** at Thu Sep 26 15:08:56 2019

   => Loading Basis Set <=

    Name: STO-3G
    Role: ORBITAL
    Keyword: BASIS
    atoms 1   entry N          line    71 file /home/carlosborca/miniconda3/envs/CrystaLattE/share/psi4/basis/sto-3g.gbs 
    atoms 2-4 entry H          line    19 file /home/carlosborca/miniconda3/envs/CrystaLattE/share/psi4/basis/sto-3g.gbs 


         ---------------------------------------------------------
                                   SCF
               by Justin Turney, Rob Parrish, Andy Simmonett
                          and Daniel G. A. Smith
                              RHF Reference
                        4 Threads,    476 MiB Core
         ---------------------------------------------------------

  ==> Geometry <==

    Molecular point group: c1
    Full point group: C1

    Geometry (in Bohr), charge = 0, multiplicity = 1:

       Center              X                  Y                   Z               Mass       
    ------------   -----------------  -----------------  -----------------  -----------------
         N            3.928511960000    -6.528775110000    -0.919107990000    14.003074004430
         H            2.394725200000    -5.981962070000     0.000000000000     1.007825032230
         H            4.847619940000    -4.994988350000    -1.465921030000     1.007825032230
         H            3.381698920000    -7.447883090000    -2.452894750000     1.007825032230

  Running in c1 symmetry.

  Rotational constants: A =      8.05015  B =      0.06102  C =      0.06091 [cm^-1]
  Rotational constants: A = 241337.31312  B =   1829.35065  C =   1826.14248 [MHz]
  Nuclear repulsion =   12.223291212110814

  Charge       = 0
  Multiplicity = 1
  Electrons    = 10
  Nalpha       = 5
  Nbeta        = 5

  ==> Algorithm <==

  SCF Algorithm Type is DF.
  DIIS enabled.
  MOM disabled.
  Fractional occupation disabled.
  Guess Type is SAD.
  Energy threshold   = 1.00e-08
  Density threshold  = 1.00e-06
  Integral threshold = 0.00e+00

  ==> Primary Basis <==

  Basis Set: STO-3G
    Blend: STO-3G
    Number of shells: 6
    Number of basis function: 8
    Number of Cartesian functions: 8
    Spherical Harmonics?: true
    Max angular momentum: 1

   => Loading Basis Set <=

    Name: (STO-3G AUX)
    Role: JKFIT
    Keyword: DF_BASIS_SCF
    atoms 1   entry N          line   263 file /home/carlosborca/miniconda3/envs/CrystaLattE/share/psi4/basis/def2-svp-jkfit.gbs 
    atoms 2-4 entry H          line    23 file /home/carlosborca/miniconda3/envs/CrystaLattE/share/psi4/basis/def2-svp-jkfit.gbs 

  ==> Pre-Iterations <==

   -------------------------------------------------------
    Irrep   Nso     Nmo     Nalpha   Nbeta   Ndocc  Nsocc
   -------------------------------------------------------
     A          8       8       0       0       0       0
   -------------------------------------------------------
    Total       8       8       5       5       5       0
   -------------------------------------------------------

  ==> Integral Setup <==

  DFHelper Memory: AOs need 0.000 GiB; user supplied 0.349 GiB. Using in-core AOs.

  ==> MemDFJK: Density-Fitted J/K Matrices <==

    J tasked:                   Yes
    K tasked:                   Yes
    wK tasked:                   No
    OpenMP threads:               4
    Memory [MiB]:               357
    Algorithm:                 Core
    Schwarz Cutoff:           1E-12
    Mask sparsity (%):       0.0000
    Fitting Condition:        1E-10

   => Auxiliary Basis Set <=

  Basis Set: (STO-3G AUX)
    Blend: DEF2-SVP-JKFIT
    Number of shells: 43
    Number of basis function: 131
    Number of Cartesian functions: 153
    Spherical Harmonics?: true
    Max angular momentum: 4

  Minimum eigenvalue in the overlap matrix is 2.5446567971E-01.
  Using Symmetric Orthogonalization.

  SCF Guess: Superposition of Atomic Densities via on-the-fly atomic UHF.

  ==> Iterations <==

                           Total Energy        Delta E     RMS |[F,P]|

   @DF-RHF iter SAD:   -54.58562506451263   -5.45856e+01   0.00000e+00 
   @DF-RHF iter   1:   -55.42957379996170   -8.43949e-01   2.08005e-02 DIIS
   @DF-RHF iter   2:   -55.44933997554416   -1.97662e-02   3.93998e-03 DIIS
   @DF-RHF iter   3:   -55.44993006278771   -5.90087e-04   8.13904e-04 DIIS
   @DF-RHF iter   4:   -55.44996535311102   -3.52903e-05   7.59270e-06 DIIS
   @DF-RHF iter   5:   -55.44996535896061   -5.84959e-09   9.86692e-07 DIIS
  Energy and wave function converged.


  ==> Post-Iterations <==

    Orbital Energies [Eh]
    ---------------------

    Doubly Occupied:                                                      

       1A    -15.300501     2A     -1.100051     3A     -0.584614  
       4A     -0.584614     5A     -0.351735  

    Virtual:                                                              

       6A      0.663673     7A      0.759629     8A      0.759629  

    Final Occupation by Irrep:
              A 
    DOCC [     5 ]

  @DF-RHF Final Energy:   -55.44996535896061

   => Energetics <=

    Nuclear Repulsion Energy =             12.2232912121108139
    One-Electron Energy =                 -99.5034370296629049
    Two-Electron Energy =                  31.8301804585914851
    Total Energy =                        -55.4499653589606112

Computation Completed


Properties will be evaluated at   0.000000,   0.000000,   0.000000 [a0]

Properties computed using the SCF density matrix

  Nuclear Dipole Moment: [e a0]
     X:    38.1236      Y:   -64.1263      Z:   -10.3526

  Electronic Dipole Moment: [e a0]
     X:   -38.5185      Y:    64.5212      Z:     9.9577

  Dipole Moment: [e a0]
     X:    -0.3949      Y:     0.3949      Z:    -0.3949     Total:     0.6840

  Dipole Moment: [D]
     X:    -1.0038      Y:     1.0038      Z:    -1.0038     Total:     1.7386


*** tstop() called on Vanadium at Thu Sep 26 15:08:58 2019
Module time:
	user time   =       3.86 seconds =       0.06 minutes
	system time =       0.75 seconds =       0.01 minutes
	total time  =          2 seconds =       0.03 minutes
Total time:
	user time   =      36.43 seconds =       0.61 minutes
	system time =       6.88 seconds =       0.11 minutes
	total time  =         16 seconds =       0.27 minutes

       N-Body: Complex Energy (fragments = (5,), basis = (5,):   -55.44996535896061)

       N-Body: Computing complex (8/10) with fragments (3,) in the basis of fragments (1, 2, 3, 4, 5).


*** tstart() called on Vanadium
*** at Thu Sep 26 15:08:58 2019

   => Loading Basis Set <=

    Name: STO-3G
    Role: ORBITAL
    Keyword: BASIS
    atoms 1, 5, 9, 13, 17               entry N          line    71 file /home/carlosborca/miniconda3/envs/CrystaLattE/share/psi4/basis/sto-3g.gbs 
    atoms 2-4, 6-8, 10-12, 14-16, 18-20 entry H          line    19 file /home/carlosborca/miniconda3/envs/CrystaLattE/share/psi4/basis/sto-3g.gbs 


         ---------------------------------------------------------
                                   SCF
               by Justin Turney, Rob Parrish, Andy Simmonett
                          and Daniel G. A. Smith
                              RHF Reference
                        4 Threads,    476 MiB Core
         ---------------------------------------------------------

  ==> Geometry <==

    Molecular point group: c1
    Full point group: C1

    Geometry (in Bohr), charge = 0, multiplicity = 1:

       Center              X                  Y                   Z               Mass       
    ------------   -----------------  -----------------  -----------------  -----------------
      Gh(N)          -1.681155160000    -1.681155160000    -1.681155160000    14.003074004430
      Gh(H)          -2.600263150000    -0.147368400000    -1.134342120000     1.007825032230
      Gh(H)          -1.134342120000    -2.600263150000    -0.147368400000     1.007825032230
      Gh(H)          -0.147368400000    -1.134342120000    -2.600263150000     1.007825032230
      Gh(N)           3.928511960000     3.166464780000    -0.919107990000    14.003074004430
      Gh(H)           2.394725200000     3.713277820000     0.000000000000     1.007825032230
      Gh(H)           4.847619940000     4.700251540000    -1.465921030000     1.007825032230
      Gh(H)           3.381698920000     2.247356790000    -2.452894750000     1.007825032230
         N            3.166464780000    -0.919107990000     3.928511960000    14.003074004430
         H            2.247356790000    -2.452894750000     3.381698920000     1.007825032230
         H            3.713277820000     0.000000000000     2.394725200000     1.007825032230
         H            4.700251540000    -1.465921030000     4.847619940000     1.007825032230
      Gh(N)          -0.919107990000     3.928511960000     3.166464780000    14.003074004430
      Gh(H)          -1.465921030000     4.847619940000     4.700251540000     1.007825032230
      Gh(H)          -2.452894750000     3.381698920000     2.247356790000     1.007825032230
      Gh(H)           0.000000000000     2.394725200000     3.713277820000     1.007825032230
      Gh(N)           3.928511960000    -6.528775110000    -0.919107990000    14.003074004430
      Gh(H)           2.394725200000    -5.981962070000     0.000000000000     1.007825032230
      Gh(H)           4.847619940000    -4.994988350000    -1.465921030000     1.007825032230
      Gh(H)           3.381698920000    -7.447883090000    -2.452894750000     1.007825032230

  Running in c1 symmetry.

  Rotational constants: A =      0.05430  B =      0.03392  C =      0.02816 [cm^-1]
  Rotational constants: A =   1627.73706  B =   1016.82684  C =    844.19592 [MHz]
  Nuclear repulsion =   12.223291200851136

  Charge       = 0
  Multiplicity = 1
  Electrons    = 10
  Nalpha       = 5
  Nbeta        = 5

  ==> Algorithm <==

  SCF Algorithm Type is DF.
  DIIS enabled.
  MOM disabled.
  Fractional occupation disabled.
  Guess Type is SAD.
  Energy threshold   = 1.00e-08
  Density threshold  = 1.00e-06
  Integral threshold = 0.00e+00

  ==> Primary Basis <==

  Basis Set: STO-3G
    Blend: STO-3G
    Number of shells: 30
    Number of basis function: 40
    Number of Cartesian functions: 40
    Spherical Harmonics?: true
    Max angular momentum: 1

   => Loading Basis Set <=

    Name: (STO-3G AUX)
    Role: JKFIT
    Keyword: DF_BASIS_SCF
    atoms 1, 5, 9, 13, 17               entry N          line   263 file /home/carlosborca/miniconda3/envs/CrystaLattE/share/psi4/basis/def2-svp-jkfit.gbs 
    atoms 2-4, 6-8, 10-12, 14-16, 18-20 entry H          line    23 file /home/carlosborca/miniconda3/envs/CrystaLattE/share/psi4/basis/def2-svp-jkfit.gbs 

  ==> Pre-Iterations <==

   -------------------------------------------------------
    Irrep   Nso     Nmo     Nalpha   Nbeta   Ndocc  Nsocc
   -------------------------------------------------------
     A         40      40       0       0       0       0
   -------------------------------------------------------
    Total      40      40       5       5       5       0
   -------------------------------------------------------

  ==> Integral Setup <==

  DFHelper Memory: AOs need 0.011 GiB; user supplied 0.349 GiB. Using in-core AOs.

  ==> MemDFJK: Density-Fitted J/K Matrices <==

    J tasked:                   Yes
    K tasked:                   Yes
    wK tasked:                   No
    OpenMP threads:               4
    Memory [MiB]:               357
    Algorithm:                 Core
    Schwarz Cutoff:           1E-12
    Mask sparsity (%):       3.0000
    Fitting Condition:        1E-10

   => Auxiliary Basis Set <=

  Basis Set: (STO-3G AUX)
    Blend: DEF2-SVP-JKFIT
    Number of shells: 215
    Number of basis function: 655
    Number of Cartesian functions: 765
    Spherical Harmonics?: true
    Max angular momentum: 4

  Minimum eigenvalue in the overlap matrix is 2.4566979047E-01.
  Using Symmetric Orthogonalization.

  SCF Guess: Superposition of Atomic Densities via on-the-fly atomic UHF.

  ==> Iterations <==

                           Total Energy        Delta E     RMS |[F,P]|

   @DF-RHF iter SAD:   -54.58562090011932   -5.45856e+01   0.00000e+00 
   @DF-RHF iter   1:   -55.43145899893086   -8.45838e-01   4.12852e-03 DIIS
   @DF-RHF iter   2:   -55.45087786953990   -1.94189e-02   8.00742e-04 DIIS
   @DF-RHF iter   3:   -55.45148651509383   -6.08646e-04   1.64603e-04 DIIS
   @DF-RHF iter   4:   -55.45152292495079   -3.64099e-05   2.20022e-06 DIIS
   @DF-RHF iter   5:   -55.45152293344813   -8.49735e-09   5.06722e-07 DIIS
  Energy and wave function converged.


  ==> Post-Iterations <==

    Orbital Energies [Eh]
    ---------------------

    Doubly Occupied:                                                      

       1A    -15.303339     2A     -1.101541     3A     -0.586053  
       4A     -0.585930     5A     -0.353374  

    Virtual:                                                              

       6A      0.409111     7A      0.422153     8A      0.437903  
       9A      0.453659    10A      0.661092    11A      0.751436  
      12A      0.758273    13A      0.910503    14A      0.920427  
      15A      0.936968    16A      0.940261    17A      0.948059  
      18A      0.975399    19A      0.985734    20A      1.001471  
      21A      1.307081    22A      1.330346    23A      1.344639  
      24A      1.390289    25A      2.175687    26A      2.195963  
      27A      2.221667    28A      2.266158    29A      2.666593  
      30A      2.678822    31A      2.689930    32A      2.693233  
      33A      2.704257    34A      2.731730    35A      2.745691  
      36A      2.755392    37A     23.898874    38A     23.906023  
      39A     23.916069    40A     23.941938  

    Final Occupation by Irrep:
              A 
    DOCC [     5 ]

  @DF-RHF Final Energy:   -55.45152293344813

   => Energetics <=

    Nuclear Repulsion Energy =             12.2232912008511363
    One-Electron Energy =                 -99.4891611513247938
    Two-Electron Energy =                  31.8143470170255291
    Total Energy =                        -55.4515229334481319

Computation Completed


Properties will be evaluated at   0.000000,   0.000000,   0.000000 [a0]

Properties computed using the SCF density matrix

  Nuclear Dipole Moment: [e a0]
     X:    32.8261      Y:   -10.3526      Z:    38.1236

  Electronic Dipole Moment: [e a0]
     X:   -32.4187      Y:     9.9462      Z:   -38.5155

  Dipole Moment: [e a0]
     X:     0.4074      Y:    -0.4064      Z:    -0.3919     Total:     0.6962

  Dipole Moment: [D]
     X:     1.0355      Y:    -1.0329      Z:    -0.9961     Total:     1.7696


*** tstop() called on Vanadium at Thu Sep 26 15:09:01 2019
Module time:
	user time   =       6.42 seconds =       0.11 minutes
	system time =       0.92 seconds =       0.02 minutes
	total time  =          3 seconds =       0.05 minutes
Total time:
	user time   =      42.94 seconds =       0.72 minutes
	system time =       7.83 seconds =       0.13 minutes
	total time  =         19 seconds =       0.32 minutes

       N-Body: Complex Energy (fragments = (3,), basis = (1, 2, 3, 4, 5):   -55.45152293344813)

       N-Body: Computing complex (9/10) with fragments (4,) in the basis of fragments (4,).


*** tstart() called on Vanadium
*** at Thu Sep 26 15:09:01 2019

   => Loading Basis Set <=

    Name: STO-3G
    Role: ORBITAL
    Keyword: BASIS
    atoms 1   entry N          line    71 file /home/carlosborca/miniconda3/envs/CrystaLattE/share/psi4/basis/sto-3g.gbs 
    atoms 2-4 entry H          line    19 file /home/carlosborca/miniconda3/envs/CrystaLattE/share/psi4/basis/sto-3g.gbs 


         ---------------------------------------------------------
                                   SCF
               by Justin Turney, Rob Parrish, Andy Simmonett
                          and Daniel G. A. Smith
                              RHF Reference
                        4 Threads,    476 MiB Core
         ---------------------------------------------------------

  ==> Geometry <==

    Molecular point group: c1
    Full point group: C1

    Geometry (in Bohr), charge = 0, multiplicity = 1:

       Center              X                  Y                   Z               Mass       
    ------------   -----------------  -----------------  -----------------  -----------------
         N           -0.919107990000     3.928511960000     3.166464780000    14.003074004430
         H           -1.465921030000     4.847619940000     4.700251540000     1.007825032230
         H           -2.452894750000     3.381698920000     2.247356790000     1.007825032230
         H            0.000000000000     2.394725200000     3.713277820000     1.007825032230

  Running in c1 symmetry.

  Rotational constants: A =     10.50680  B =      0.13254  C =      0.13153 [cm^-1]
  Rotational constants: A = 314985.91418  B =   3973.38736  C =   3943.16163 [MHz]
  Nuclear repulsion =   12.223291200851138

  Charge       = 0
  Multiplicity = 1
  Electrons    = 10
  Nalpha       = 5
  Nbeta        = 5

  ==> Algorithm <==

  SCF Algorithm Type is DF.
  DIIS enabled.
  MOM disabled.
  Fractional occupation disabled.
  Guess Type is SAD.
  Energy threshold   = 1.00e-08
  Density threshold  = 1.00e-06
  Integral threshold = 0.00e+00

  ==> Primary Basis <==

  Basis Set: STO-3G
    Blend: STO-3G
    Number of shells: 6
    Number of basis function: 8
    Number of Cartesian functions: 8
    Spherical Harmonics?: true
    Max angular momentum: 1

   => Loading Basis Set <=

    Name: (STO-3G AUX)
    Role: JKFIT
    Keyword: DF_BASIS_SCF
    atoms 1   entry N          line   263 file /home/carlosborca/miniconda3/envs/CrystaLattE/share/psi4/basis/def2-svp-jkfit.gbs 
    atoms 2-4 entry H          line    23 file /home/carlosborca/miniconda3/envs/CrystaLattE/share/psi4/basis/def2-svp-jkfit.gbs 

  ==> Pre-Iterations <==

   -------------------------------------------------------
    Irrep   Nso     Nmo     Nalpha   Nbeta   Ndocc  Nsocc
   -------------------------------------------------------
     A          8       8       0       0       0       0
   -------------------------------------------------------
    Total       8       8       5       5       5       0
   -------------------------------------------------------

  ==> Integral Setup <==

  DFHelper Memory: AOs need 0.000 GiB; user supplied 0.349 GiB. Using in-core AOs.

  ==> MemDFJK: Density-Fitted J/K Matrices <==

    J tasked:                   Yes
    K tasked:                   Yes
    wK tasked:                   No
    OpenMP threads:               4
    Memory [MiB]:               357
    Algorithm:                 Core
    Schwarz Cutoff:           1E-12
    Mask sparsity (%):       0.0000
    Fitting Condition:        1E-10

   => Auxiliary Basis Set <=

  Basis Set: (STO-3G AUX)
    Blend: DEF2-SVP-JKFIT
    Number of shells: 43
    Number of basis function: 131
    Number of Cartesian functions: 153
    Spherical Harmonics?: true
    Max angular momentum: 4

  Minimum eigenvalue in the overlap matrix is 2.5446568031E-01.
  Using Symmetric Orthogonalization.

  SCF Guess: Superposition of Atomic Densities via on-the-fly atomic UHF.

  ==> Iterations <==

                           Total Energy        Delta E     RMS |[F,P]|

   @DF-RHF iter SAD:   -54.58562506170266   -5.45856e+01   0.00000e+00 
   @DF-RHF iter   1:   -55.42957380016239   -8.43949e-01   2.08005e-02 DIIS
   @DF-RHF iter   2:   -55.44933997574166   -1.97662e-02   3.93998e-03 DIIS
   @DF-RHF iter   3:   -55.44993006298663   -5.90087e-04   8.13904e-04 DIIS
   @DF-RHF iter   4:   -55.44996535331009   -3.52903e-05   7.59270e-06 DIIS
   @DF-RHF iter   5:   -55.44996535915969   -5.84960e-09   9.86692e-07 DIIS
  Energy and wave function converged.


  ==> Post-Iterations <==

    Orbital Energies [Eh]
    ---------------------

    Doubly Occupied:                                                      

       1A    -15.300501     2A     -1.100051     3A     -0.584614  
       4A     -0.584614     5A     -0.351735  

    Virtual:                                                              

       6A      0.663673     7A      0.759629     8A      0.759629  

    Final Occupation by Irrep:
              A 
    DOCC [     5 ]

  @DF-RHF Final Energy:   -55.44996535915969

   => Energetics <=

    Nuclear Repulsion Energy =             12.2232912008511381
    One-Electron Energy =                 -99.5034370119295914
    Two-Electron Energy =                  31.8301804519187606
    Total Energy =                        -55.4499653591596910

Computation Completed


Properties will be evaluated at   0.000000,   0.000000,   0.000000 [a0]

Properties computed using the SCF density matrix

  Nuclear Dipole Moment: [e a0]
     X:   -10.3526      Y:    38.1236      Z:    32.8261

  Electronic Dipole Moment: [e a0]
     X:     9.9577      Y:   -38.5185      Z:   -32.4312

  Dipole Moment: [e a0]
     X:    -0.3949      Y:    -0.3949      Z:     0.3949     Total:     0.6840

  Dipole Moment: [D]
     X:    -1.0038      Y:    -1.0038      Z:     1.0038     Total:     1.7386


*** tstop() called on Vanadium at Thu Sep 26 15:09:02 2019
Module time:
	user time   =       3.60 seconds =       0.06 minutes
	system time =       0.80 seconds =       0.01 minutes
	total time  =          1 seconds =       0.02 minutes
Total time:
	user time   =      46.60 seconds =       0.78 minutes
	system time =       8.63 seconds =       0.14 minutes
	total time  =         20 seconds =       0.33 minutes

       N-Body: Complex Energy (fragments = (4,), basis = (4,):   -55.44996535915969)

       N-Body: Computing complex (10/10) with fragments (5,) in the basis of fragments (1, 2, 3, 4, 5).


*** tstart() called on Vanadium
*** at Thu Sep 26 15:09:02 2019

   => Loading Basis Set <=

    Name: STO-3G
    Role: ORBITAL
    Keyword: BASIS
    atoms 1, 5, 9, 13, 17               entry N          line    71 file /home/carlosborca/miniconda3/envs/CrystaLattE/share/psi4/basis/sto-3g.gbs 
    atoms 2-4, 6-8, 10-12, 14-16, 18-20 entry H          line    19 file /home/carlosborca/miniconda3/envs/CrystaLattE/share/psi4/basis/sto-3g.gbs 


         ---------------------------------------------------------
                                   SCF
               by Justin Turney, Rob Parrish, Andy Simmonett
                          and Daniel G. A. Smith
                              RHF Reference
                        4 Threads,    476 MiB Core
         ---------------------------------------------------------

  ==> Geometry <==

    Molecular point group: c1
    Full point group: C1

    Geometry (in Bohr), charge = 0, multiplicity = 1:

       Center              X                  Y                   Z               Mass       
    ------------   -----------------  -----------------  -----------------  -----------------
      Gh(N)          -1.681155160000    -1.681155160000    -1.681155160000    14.003074004430
      Gh(H)          -2.600263150000    -0.147368400000    -1.134342120000     1.007825032230
      Gh(H)          -1.134342120000    -2.600263150000    -0.147368400000     1.007825032230
      Gh(H)          -0.147368400000    -1.134342120000    -2.600263150000     1.007825032230
      Gh(N)           3.928511960000     3.166464780000    -0.919107990000    14.003074004430
      Gh(H)           2.394725200000     3.713277820000     0.000000000000     1.007825032230
      Gh(H)           4.847619940000     4.700251540000    -1.465921030000     1.007825032230
      Gh(H)           3.381698920000     2.247356790000    -2.452894750000     1.007825032230
      Gh(N)           3.166464780000    -0.919107990000     3.928511960000    14.003074004430
      Gh(H)           2.247356790000    -2.452894750000     3.381698920000     1.007825032230
      Gh(H)           3.713277820000     0.000000000000     2.394725200000     1.007825032230
      Gh(H)           4.700251540000    -1.465921030000     4.847619940000     1.007825032230
      Gh(N)          -0.919107990000     3.928511960000     3.166464780000    14.003074004430
      Gh(H)          -1.465921030000     4.847619940000     4.700251540000     1.007825032230
      Gh(H)          -2.452894750000     3.381698920000     2.247356790000     1.007825032230
      Gh(H)           0.000000000000     2.394725200000     3.713277820000     1.007825032230
         N            3.928511960000    -6.528775110000    -0.919107990000    14.003074004430
         H            2.394725200000    -5.981962070000     0.000000000000     1.007825032230
         H            4.847619940000    -4.994988350000    -1.465921030000     1.007825032230
         H            3.381698920000    -7.447883090000    -2.452894750000     1.007825032230

  Running in c1 symmetry.

  Rotational constants: A =      0.05430  B =      0.03392  C =      0.02816 [cm^-1]
  Rotational constants: A =   1627.73706  B =   1016.82684  C =    844.19592 [MHz]
  Nuclear repulsion =   12.223291212110814

  Charge       = 0
  Multiplicity = 1
  Electrons    = 10
  Nalpha       = 5
  Nbeta        = 5

  ==> Algorithm <==

  SCF Algorithm Type is DF.
  DIIS enabled.
  MOM disabled.
  Fractional occupation disabled.
  Guess Type is SAD.
  Energy threshold   = 1.00e-08
  Density threshold  = 1.00e-06
  Integral threshold = 0.00e+00

  ==> Primary Basis <==

  Basis Set: STO-3G
    Blend: STO-3G
    Number of shells: 30
    Number of basis function: 40
    Number of Cartesian functions: 40
    Spherical Harmonics?: true
    Max angular momentum: 1

   => Loading Basis Set <=

    Name: (STO-3G AUX)
    Role: JKFIT
    Keyword: DF_BASIS_SCF
    atoms 1, 5, 9, 13, 17               entry N          line   263 file /home/carlosborca/miniconda3/envs/CrystaLattE/share/psi4/basis/def2-svp-jkfit.gbs 
    atoms 2-4, 6-8, 10-12, 14-16, 18-20 entry H          line    23 file /home/carlosborca/miniconda3/envs/CrystaLattE/share/psi4/basis/def2-svp-jkfit.gbs 

  ==> Pre-Iterations <==

   -------------------------------------------------------
    Irrep   Nso     Nmo     Nalpha   Nbeta   Ndocc  Nsocc
   -------------------------------------------------------
     A         40      40       0       0       0       0
   -------------------------------------------------------
    Total      40      40       5       5       5       0
   -------------------------------------------------------

  ==> Integral Setup <==

  DFHelper Memory: AOs need 0.011 GiB; user supplied 0.349 GiB. Using in-core AOs.

  ==> MemDFJK: Density-Fitted J/K Matrices <==

    J tasked:                   Yes
    K tasked:                   Yes
    wK tasked:                   No
    OpenMP threads:               4
    Memory [MiB]:               357
    Algorithm:                 Core
    Schwarz Cutoff:           1E-12
    Mask sparsity (%):       3.0000
    Fitting Condition:        1E-10

   => Auxiliary Basis Set <=

  Basis Set: (STO-3G AUX)
    Blend: DEF2-SVP-JKFIT
    Number of shells: 215
    Number of basis function: 655
    Number of Cartesian functions: 765
    Spherical Harmonics?: true
    Max angular momentum: 4

  Minimum eigenvalue in the overlap matrix is 2.4566979047E-01.
  Using Symmetric Orthogonalization.

  SCF Guess: Superposition of Atomic Densities via on-the-fly atomic UHF.

  ==> Iterations <==

                           Total Energy        Delta E     RMS |[F,P]|

   @DF-RHF iter SAD:   -54.58562137921555   -5.45856e+01   0.00000e+00 
   @DF-RHF iter   1:   -55.42968728209878   -8.44066e-01   4.15898e-03 DIIS
   @DF-RHF iter   2:   -55.44943368391874   -1.97464e-02   7.88964e-04 DIIS
   @DF-RHF iter   3:   -55.45002526300202   -5.91579e-04   1.62897e-04 DIIS
   @DF-RHF iter   4:   -55.45006063491470   -3.53719e-05   1.66001e-06 DIIS
   @DF-RHF iter   5:   -55.45006064122349   -6.30879e-09   4.32457e-07 DIIS
  Energy and wave function converged.


  ==> Post-Iterations <==

    Orbital Energies [Eh]
    ---------------------

    Doubly Occupied:                                                      

       1A    -15.300755     2A     -1.100225     3A     -0.584781  
       4A     -0.584749     5A     -0.351887  

    Virtual:                                                              

       6A      0.394851     7A      0.428654     8A      0.440449  
       9A      0.441402    10A      0.661335    11A      0.752762  
      12A      0.759370    13A      0.887477    14A      0.906110  
      15A      0.916988    16A      0.945430    17A      0.968881  
      18A      0.971104    19A      0.984403    20A      0.985114  
      21A      1.313259    22A      1.322516    23A      1.325424  
      24A      1.395362    25A      2.130152    26A      2.206347  
      27A      2.250887    28A      2.252486    29A      2.663270  
      30A      2.665523    31A      2.693871    32A      2.695161  
      33A      2.695797    34A      2.743960    35A      2.744637  
      36A      2.762650    37A     23.900925    38A     23.901918  
      39A     23.903075    40A     23.943896  

    Final Occupation by Irrep:
              A 
    DOCC [     5 ]

  @DF-RHF Final Energy:   -55.45006064122349

   => Energetics <=

    Nuclear Repulsion Energy =             12.2232912121108139
    One-Electron Energy =                 -99.5019218639256451
    Two-Electron Energy =                  31.8285700105913492
    Total Energy =                        -55.4500606412234873

Computation Completed


Properties will be evaluated at   0.000000,   0.000000,   0.000000 [a0]

Properties computed using the SCF density matrix

  Nuclear Dipole Moment: [e a0]
     X:    38.1236      Y:   -64.1263      Z:   -10.3526

  Electronic Dipole Moment: [e a0]
     X:   -38.5173      Y:    64.5196      Z:     9.9566

  Dipole Moment: [e a0]
     X:    -0.3936      Y:     0.3933      Z:    -0.3960     Total:     0.6830

  Dipole Moment: [D]
     X:    -1.0005      Y:     0.9997      Z:    -1.0064     Total:     1.7359


*** tstop() called on Vanadium at Thu Sep 26 15:09:05 2019
Module time:
	user time   =       6.55 seconds =       0.11 minutes
	system time =       0.98 seconds =       0.02 minutes
	total time  =          3 seconds =       0.05 minutes
Total time:
	user time   =      53.27 seconds =       0.89 minutes
[...]


Properties will be evaluated at   0.000000,   0.000000,   0.000000 [a0]

Properties computed using the SCF density matrix

  Nuclear Dipole Moment: [e a0]
     X:    93.4233      Y:   -57.3028      Z:     1.7684

  Electronic Dipole Moment: [e a0]
     X:   -93.3919      Y:    58.1459      Z:    -2.5946

  Dipole Moment: [e a0]
     X:     0.0314      Y:     0.8431      Z:    -0.8261     Total:     1.1808

  Dipole Moment: [D]
     X:     0.0799      Y:     2.1430      Z:    -2.0998     Total:     3.0013


*** tstop() called on Vanadium at Thu Sep 26 15:10:19 2019
Module time:
	user time   =       6.57 seconds =       0.11 minutes
	system time =       1.06 seconds =       0.02 minutes
	total time  =          3 seconds =       0.05 minutes
Total time:
	user time   =     213.79 seconds =       3.56 minutes
	system time =      34.69 seconds =       0.58 minutes
	total time  =         97 seconds =       1.62 minutes

       N-Body: Complex Energy (fragments = (1, 2, 3, 5), basis = (1, 2, 3, 4, 5):  -221.80341500012813)

       N-Body: Computing complex (5/5) with fragments (1, 2, 4, 5) in the basis of fragments (1, 2, 3, 4, 5).


*** tstart() called on Vanadium
*** at Thu Sep 26 15:10:19 2019

   => Loading Basis Set <=

    Name: STO-3G
    Role: ORBITAL
    Keyword: BASIS
    atoms 1, 5, 9, 13, 17               entry N          line    71 file /home/carlosborca/miniconda3/envs/CrystaLattE/share/psi4/basis/sto-3g.gbs 
    atoms 2-4, 6-8, 10-12, 14-16, 18-20 entry H          line    19 file /home/carlosborca/miniconda3/envs/CrystaLattE/share/psi4/basis/sto-3g.gbs 


         ---------------------------------------------------------
                                   SCF
               by Justin Turney, Rob Parrish, Andy Simmonett
                          and Daniel G. A. Smith
                              RHF Reference
                        4 Threads,    476 MiB Core
         ---------------------------------------------------------

  ==> Geometry <==

    Molecular point group: c1
    Full point group: C1

    Geometry (in Bohr), charge = 0, multiplicity = 1:

       Center              X                  Y                   Z               Mass       
    ------------   -----------------  -----------------  -----------------  -----------------
         N           -1.681155160000    -1.681155160000    -1.681155160000    14.003074004430
         H           -2.600263150000    -0.147368400000    -1.134342120000     1.007825032230
         H           -1.134342120000    -2.600263150000    -0.147368400000     1.007825032230
         H           -0.147368400000    -1.134342120000    -2.600263150000     1.007825032230
         N            3.928511960000     3.166464780000    -0.919107990000    14.003074004430
         H            2.394725200000     3.713277820000     0.000000000000     1.007825032230
         H            4.847619940000     4.700251540000    -1.465921030000     1.007825032230
         H            3.381698920000     2.247356790000    -2.452894750000     1.007825032230
      Gh(N)           3.166464780000    -0.919107990000     3.928511960000    14.003074004430
      Gh(H)           2.247356790000    -2.452894750000     3.381698920000     1.007825032230
      Gh(H)           3.713277820000     0.000000000000     2.394725200000     1.007825032230
      Gh(H)           4.700251540000    -1.465921030000     4.847619940000     1.007825032230
         N           -0.919107990000     3.928511960000     3.166464780000    14.003074004430
         H           -1.465921030000     4.847619940000     4.700251540000     1.007825032230
         H           -2.452894750000     3.381698920000     2.247356790000     1.007825032230
         H            0.000000000000     2.394725200000     3.713277820000     1.007825032230
         N            3.928511960000    -6.528775110000    -0.919107990000    14.003074004430
         H            2.394725200000    -5.981962070000     0.000000000000     1.007825032230
         H            4.847619940000    -4.994988350000    -1.465921030000     1.007825032230
         H            3.381698920000    -7.447883090000    -2.452894750000     1.007825032230

  Running in c1 symmetry.

  Rotational constants: A =      0.05430  B =      0.03392  C =      0.02816 [cm^-1]
  Rotational constants: A =   1627.73706  B =   1016.82684  C =    844.19592 [MHz]
  Nuclear repulsion =  124.101106219931353

  Charge       = 0
  Multiplicity = 1
  Electrons    = 40
  Nalpha       = 20
  Nbeta        = 20

  ==> Algorithm <==

  SCF Algorithm Type is DF.
  DIIS enabled.
  MOM disabled.
  Fractional occupation disabled.
  Guess Type is SAD.
  Energy threshold   = 1.00e-08
  Density threshold  = 1.00e-06
  Integral threshold = 0.00e+00

  ==> Primary Basis <==

  Basis Set: STO-3G
    Blend: STO-3G
    Number of shells: 30
    Number of basis function: 40
    Number of Cartesian functions: 40
    Spherical Harmonics?: true
    Max angular momentum: 1

   => Loading Basis Set <=

    Name: (STO-3G AUX)
    Role: JKFIT
    Keyword: DF_BASIS_SCF
    atoms 1, 5, 9, 13, 17               entry N          line   263 file /home/carlosborca/miniconda3/envs/CrystaLattE/share/psi4/basis/def2-svp-jkfit.gbs 
    atoms 2-4, 6-8, 10-12, 14-16, 18-20 entry H          line    23 file /home/carlosborca/miniconda3/envs/CrystaLattE/share/psi4/basis/def2-svp-jkfit.gbs 

  ==> Pre-Iterations <==

   -------------------------------------------------------
    Irrep   Nso     Nmo     Nalpha   Nbeta   Ndocc  Nsocc
   -------------------------------------------------------
     A         40      40       0       0       0       0
   -------------------------------------------------------
    Total      40      40      20      20      20       0
   -------------------------------------------------------

  ==> Integral Setup <==

  DFHelper Memory: AOs need 0.011 GiB; user supplied 0.349 GiB. Using in-core AOs.

  ==> MemDFJK: Density-Fitted J/K Matrices <==

    J tasked:                   Yes
    K tasked:                   Yes
    wK tasked:                   No
    OpenMP threads:               4
    Memory [MiB]:               357
    Algorithm:                 Core
    Schwarz Cutoff:           1E-12
    Mask sparsity (%):       3.0000
    Fitting Condition:        1E-10

   => Auxiliary Basis Set <=

  Basis Set: (STO-3G AUX)
    Blend: DEF2-SVP-JKFIT
    Number of shells: 215
    Number of basis function: 655
    Number of Cartesian functions: 765
    Spherical Harmonics?: true
    Max angular momentum: 4

  Minimum eigenvalue in the overlap matrix is 2.4566979047E-01.
  Using Symmetric Orthogonalization.

  SCF Guess: Superposition of Atomic Densities via on-the-fly atomic UHF.

  ==> Iterations <==

                           Total Energy        Delta E     RMS |[F,P]|

   @DF-RHF iter SAD:  -218.34791616038461   -2.18348e+02   0.00000e+00 
   @DF-RHF iter   1:  -221.72415906548625   -3.37624e+00   8.21004e-03 DIIS
   @DF-RHF iter   2:  -221.80135075106480   -7.71917e-02   1.56222e-03 DIIS
   @DF-RHF iter   3:  -221.80369150517316   -2.34075e-03   3.23623e-04 DIIS
   @DF-RHF iter   4:  -221.80383196808489   -1.40463e-04   4.87412e-06 DIIS
   @DF-RHF iter   5:  -221.80383201040485   -4.23200e-08   1.08953e-06 DIIS
   @DF-RHF iter   6:  -221.80383201295118   -2.54633e-09   2.76335e-07 DIIS
  Energy and wave function converged.


  ==> Post-Iterations <==

    Orbital Energies [Eh]
    ---------------------

    Doubly Occupied:                                                      

       1A    -15.318797     2A    -15.313985     3A    -15.298736  
       4A    -15.294584     5A     -1.118651     6A     -1.113176  
       7A     -1.098161     8A     -1.095966     9A     -0.606791  
      10A     -0.604875    11A     -0.599535    12A     -0.596322  
      13A     -0.582287    14A     -0.581999    15A     -0.581354  
      16A     -0.576151    17A     -0.371773    18A     -0.364428  
      19A     -0.349783    20A     -0.348486  

    Virtual:                                                              

      21A      0.426117    22A      0.609828    23A      0.644395  
      24A      0.666964    25A      0.686734    26A      0.722574  
      27A      0.735360    28A      0.742158    29A      0.762222  
      30A      0.765134    31A      0.775653    32A      0.785842  
      33A      0.790364    34A      0.954142    35A      0.974108  
      36A      1.345850    37A      2.225024    38A      2.702463  
      39A      2.712167    40A     23.914806  

    Final Occupation by Irrep:
              A 
    DOCC [    20 ]

  @DF-RHF Final Energy:  -221.80383201295118

   => Energetics <=

    Nuclear Repulsion Energy =            124.1011062199313528
    One-Electron Energy =                -548.1782040575675410
    Two-Electron Energy =                 202.2732658246850121
    Total Energy =                       -221.8038320129511760

Computation Completed


Properties will be evaluated at   0.000000,   0.000000,   0.000000 [a0]

Properties computed using the SCF density matrix

  Nuclear Dipole Moment: [e a0]
     X:    50.2446      Y:    -8.8266      Z:    -3.5291

  Electronic Dipole Moment: [e a0]
     X:   -51.0691      Y:     9.6542      Z:     3.5782

  Dipole Moment: [e a0]
     X:    -0.8245      Y:     0.8277      Z:     0.0491     Total:     1.1693

  Dipole Moment: [D]
     X:    -2.0956      Y:     2.1037      Z:     0.1248     Total:     2.9720


*** tstop() called on Vanadium at Thu Sep 26 15:10:22 2019
Module time:
	user time   =       6.56 seconds =       0.11 minutes
	system time =       1.09 seconds =       0.02 minutes
	total time  =          3 seconds =       0.05 minutes
Total time:
	user time   =     220.41 seconds =       3.67 minutes
	system time =      35.78 seconds =       0.60 minutes
	total time  =        100 seconds =       1.67 minutes

       N-Body: Complex Energy (fragments = (1, 2, 4, 5), basis = (1, 2, 3, 4, 5):  -221.80383201295118)

   ==> N-Body: Now computing 5-body complexes <==


       N-Body: Computing complex (1/1) with fragments (1, 2, 3, 4, 5) in the basis of fragments (1, 2, 3, 4, 5).


*** tstart() called on Vanadium
*** at Thu Sep 26 15:10:22 2019

   => Loading Basis Set <=

    Name: STO-3G
    Role: ORBITAL
    Keyword: BASIS
    atoms 1, 5, 9, 13, 17               entry N          line    71 file /home/carlosborca/miniconda3/envs/CrystaLattE/share/psi4/basis/sto-3g.gbs 
    atoms 2-4, 6-8, 10-12, 14-16, 18-20 entry H          line    19 file /home/carlosborca/miniconda3/envs/CrystaLattE/share/psi4/basis/sto-3g.gbs 


         ---------------------------------------------------------
                                   SCF
               by Justin Turney, Rob Parrish, Andy Simmonett
                          and Daniel G. A. Smith
                              RHF Reference
                        4 Threads,    476 MiB Core
         ---------------------------------------------------------

  ==> Geometry <==

    Molecular point group: c1
    Full point group: C1

    Geometry (in Bohr), charge = 0, multiplicity = 1:

       Center              X                  Y                   Z               Mass       
    ------------   -----------------  -----------------  -----------------  -----------------
         N           -1.681155160000    -1.681155160000    -1.681155160000    14.003074004430
         H           -2.600263150000    -0.147368400000    -1.134342120000     1.007825032230
         H           -1.134342120000    -2.600263150000    -0.147368400000     1.007825032230
         H           -0.147368400000    -1.134342120000    -2.600263150000     1.007825032230
         N            3.928511960000     3.166464780000    -0.919107990000    14.003074004430
         H            2.394725200000     3.713277820000     0.000000000000     1.007825032230
         H            4.847619940000     4.700251540000    -1.465921030000     1.007825032230
         H            3.381698920000     2.247356790000    -2.452894750000     1.007825032230
         N            3.166464780000    -0.919107990000     3.928511960000    14.003074004430
         H            2.247356790000    -2.452894750000     3.381698920000     1.007825032230
         H            3.713277820000     0.000000000000     2.394725200000     1.007825032230
         H            4.700251540000    -1.465921030000     4.847619940000     1.007825032230
         N           -0.919107990000     3.928511960000     3.166464780000    14.003074004430
         H           -1.465921030000     4.847619940000     4.700251540000     1.007825032230
         H           -2.452894750000     3.381698920000     2.247356790000     1.007825032230
         H            0.000000000000     2.394725200000     3.713277820000     1.007825032230
         N            3.928511960000    -6.528775110000    -0.919107990000    14.003074004430
         H            2.394725200000    -5.981962070000     0.000000000000     1.007825032230
         H            4.847619940000    -4.994988350000    -1.465921030000     1.007825032230
         H            3.381698920000    -7.447883090000    -2.452894750000     1.007825032230

  Running in c1 symmetry.

  Rotational constants: A =      0.05430  B =      0.03392  C =      0.02816 [cm^-1]
  Rotational constants: A =   1627.73706  B =   1016.82684  C =    844.19592 [MHz]
  Nuclear repulsion =  194.643469344376712

  Charge       = 0
  Multiplicity = 1
  Electrons    = 50
  Nalpha       = 25
  Nbeta        = 25

  ==> Algorithm <==

  SCF Algorithm Type is DF.
  DIIS enabled.
  MOM disabled.
  Fractional occupation disabled.
  Guess Type is SAD.
  Energy threshold   = 1.00e-08
  Density threshold  = 1.00e-06
  Integral threshold = 0.00e+00

  ==> Primary Basis <==

  Basis Set: STO-3G
    Blend: STO-3G
    Number of shells: 30
    Number of basis function: 40
    Number of Cartesian functions: 40
    Spherical Harmonics?: true
    Max angular momentum: 1

   => Loading Basis Set <=

    Name: (STO-3G AUX)
    Role: JKFIT
    Keyword: DF_BASIS_SCF
    atoms 1, 5, 9, 13, 17               entry N          line   263 file /home/carlosborca/miniconda3/envs/CrystaLattE/share/psi4/basis/def2-svp-jkfit.gbs 
    atoms 2-4, 6-8, 10-12, 14-16, 18-20 entry H          line    23 file /home/carlosborca/miniconda3/envs/CrystaLattE/share/psi4/basis/def2-svp-jkfit.gbs 

  ==> Pre-Iterations <==

   -------------------------------------------------------
    Irrep   Nso     Nmo     Nalpha   Nbeta   Ndocc  Nsocc
   -------------------------------------------------------
     A         40      40       0       0       0       0
   -------------------------------------------------------
    Total      40      40      25      25      25       0
   -------------------------------------------------------

  ==> Integral Setup <==

  DFHelper Memory: AOs need 0.011 GiB; user supplied 0.349 GiB. Using in-core AOs.

  ==> MemDFJK: Density-Fitted J/K Matrices <==

    J tasked:                   Yes
    K tasked:                   Yes
    wK tasked:                   No
    OpenMP threads:               4
    Memory [MiB]:               357
    Algorithm:                 Core
    Schwarz Cutoff:           1E-12
    Mask sparsity (%):       3.0000
    Fitting Condition:        1E-10

   => Auxiliary Basis Set <=

  Basis Set: (STO-3G AUX)
    Blend: DEF2-SVP-JKFIT
    Number of shells: 215
    Number of basis function: 655
    Number of Cartesian functions: 765
    Spherical Harmonics?: true
    Max angular momentum: 4

  Minimum eigenvalue in the overlap matrix is 2.4566979047E-01.
  Using Symmetric Orthogonalization.

  SCF Guess: Superposition of Atomic Densities via on-the-fly atomic UHF.

  ==> Iterations <==

                           Total Energy        Delta E     RMS |[F,P]|

   @DF-RHF iter SAD:  -272.94187091030983   -2.72942e+02   0.00000e+00 
   @DF-RHF iter   1:  -277.16179050352616   -4.21992e+00   9.02720e-03 DIIS
   @DF-RHF iter   2:  -277.25572379054279   -9.39333e-02   1.70394e-03 DIIS
   @DF-RHF iter   3:  -277.25854788476153   -2.82409e-03   3.55201e-04 DIIS
   @DF-RHF iter   4:  -277.25871775865352   -1.69874e-04   7.40794e-06 DIIS
   @DF-RHF iter   5:  -277.25871784535207   -8.66985e-08   1.60593e-06 DIIS
   @DF-RHF iter   6:  -277.25871785012998   -4.77792e-09   3.62424e-07 DIIS
  Energy and wave function converged.


  ==> Post-Iterations <==

    Orbital Energies [Eh]
    ---------------------

    Doubly Occupied:                                                      

       1A    -15.315990     2A    -15.307605     3A    -15.299108  
       4A    -15.297525     5A    -15.297202     6A     -1.115790  
       7A     -1.107144     8A     -1.105276     9A     -1.098792  
      10A     -1.097615    11A     -0.605140    12A     -0.602375  
      13A     -0.601532    14A     -0.591848    15A     -0.591049  
      16A     -0.587513    17A     -0.585651    18A     -0.584328  
      19A     -0.574197    20A     -0.573283    21A     -0.366378  
      22A     -0.359574    23A     -0.358793    24A     -0.357824  
      25A     -0.347542  

    Virtual:                                                              

      26A      0.589596    27A      0.642027    28A      0.667213  
      29A      0.673771    30A      0.688221    31A      0.726715  
      32A      0.735139    33A      0.753200    34A      0.762176  
      35A      0.769965    36A      0.770463    37A      0.779700  
      38A      0.783886    39A      0.790520    40A      0.791649  

    Final Occupation by Irrep:
              A 
    DOCC [    25 ]

  @DF-RHF Final Energy:  -277.25871785012998

   => Energetics <=

    Nuclear Repulsion Energy =            194.6434693443767117
    One-Electron Energy =                -764.3462361809478125
    Two-Electron Energy =                 292.4440489864410893
    Total Energy =                       -277.2587178501299832

Computation Completed


Properties will be evaluated at   0.000000,   0.000000,   0.000000 [a0]

Properties computed using the SCF density matrix

  Nuclear Dipole Moment: [e a0]
     X:    83.0708      Y:   -19.1791      Z:    34.5946

  Electronic Dipole Moment: [e a0]
     X:   -83.4260      Y:    19.6111      Z:   -34.9566

  Dipole Moment: [e a0]
     X:    -0.3553      Y:     0.4320      Z:    -0.3620     Total:     0.6663

  Dipole Moment: [D]
     X:    -0.9030      Y:     1.0979      Z:    -0.9202     Total:     1.6935


*** tstop() called on Vanadium at Thu Sep 26 15:10:26 2019
Module time:
	user time   =       6.91 seconds =       0.12 minutes
	system time =       1.15 seconds =       0.02 minutes
	total time  =          4 seconds =       0.07 minutes
Total time:
	user time   =     227.41 seconds =       3.79 minutes
	system time =      36.97 seconds =       0.62 minutes
	total time  =        104 seconds =       1.73 minutes

       N-Body: Complex Energy (fragments = (1, 2, 3, 4, 5), basis = (1, 2, 3, 4, 5):  -277.25871785012998)

   ==> N-Body: Counterpoise Corrected (CP) energies <==

   n-Body     Total Energy [Eh]       I.E. [kcal/mol]      Delta [kcal/mol]
        1     -277.249826795808        0.000000000000        0.000000000000
        2     -277.253389228796       -2.235460449287       -2.235460449287
        3     -277.253853117704       -2.526555134356       -0.291094685068
        4     -277.253852230851       -2.525998625232        0.000556509124
        5     -277.253852239572       -2.526004097904       -0.000005472672

   => Loading Basis Set <=

    Name: DEF2-SVP
    Role: ORBITAL
    Keyword: BASIS
    atoms 1, 5, 9, 13, 17               entry N          line   110 file /home/carlosborca/miniconda3/envs/CrystaLattE/share/psi4/basis/def2-svp.gbs 
    atoms 2-4, 6-8, 10-12, 14-16, 18-20 entry H          line    15 file /home/carlosborca/miniconda3/envs/CrystaLattE/share/psi4/basis/def2-svp.gbs 


    Psi4 stopped on: Thursday, 26 September 2019 03:10PM
    Psi4 wall time for execution: 0:01:43.63

*** Psi4 exiting successfully. Buy a developer a beer!
